8770
energy=-167731.18612187 cutoff=10.58354498 nneightol=1.20000000 pbc="T T T" Lattice="265.39576501       0.00000000       0.00000000       0.00000000      98.00293199       0.00000000       0.00000000       0.00000000      24.28372928" Properties=species:S:1:pos:R:3:Z:I:1:momenta:R:3:force:R:3
Si              5.00086227     11.52178887      5.53120599      14      0.00000000      0.14492197      0.00000000      4.00281948     -1.00495682      1.04773314
O               6.30231593     10.71781990      5.10405492       8     -0.00000000     -0.09861063     -0.00000000     -1.64124824      0.01427611      0.51884550
O               5.00723728     13.00160523      5.08112591       8      0.00000000      0.63461627      0.00000000     -1.90624448      1.17030175      0.14654885
O               5.00000000     11.42009015      7.14186463       8     -0.00000000     -0.17581703     -0.00000000     -2.18714019     -0.23071457     -0.13538303
Si              5.00086227     11.47319857      8.75252328      14      0.00000000      1.14179000      0.00000000      3.77130730     -0.13524521     -0.91228022
O               6.30231593     10.68144579      9.17967435       8     -0.00000000     -0.20429175     -0.00000000     -1.67755209     -0.15388395     -0.39600513
O               5.00723728     12.95931207      9.20260336       8     -0.00000000     -0.31996178     -0.00000000     -1.96475474      1.87360100     -0.49826159
Si             10.36288708      5.28703109      5.50781986      14      0.83879754     -0.74426649     -0.21754700     -2.16203057      1.24741865      0.76126201
Si              7.66218606      6.86974085      5.52590560      14     -0.00000000     -0.19809718     -0.00000000      3.47191162      0.85625608      1.09386630
Si              7.66462340      9.97120921      5.53251478      14      0.00000000      2.01983850      0.00000000      0.00561118     -1.71268279      0.36180603
Si             10.35818865     11.42502126      5.50504205      14      0.62400112      0.31887679      0.27261066     -0.65068091      0.22447994      0.47049875
O               8.94355459      5.95809764      5.11009363       8     -0.00000000     -0.40661769     -0.00000000     -0.16854869     -0.22613266      0.49622008
O              11.69944293      5.83947202      4.99694830       8      1.15101837      0.37259167      0.04288604     -0.40802199     -0.21123719      0.07762911
O               7.66808511      8.36721425      5.08243827       8      0.00000000      0.05804220      0.00000000     -1.33897812     -1.15045950      0.54316659
O              11.61485392     10.51845217      5.10775416       8      0.97066906      0.14645930     -1.44314136     -0.94486918      0.91374981     -0.09611605
O               9.02223119     10.51528781      5.10272869       8     -0.00000000     -0.31152527     -0.00000000      1.67524573      1.59428098     -0.20435134
O              10.28546504     12.94833431      5.03784226       8      0.17803068      0.98774677     -1.46498287     -0.11114804      0.35586416      0.38559209
O              10.28905821      5.02778122      7.09358993       8     -0.39664330     -0.90773343      0.56854006     -0.27479485      0.11900018     -0.42760653
O               7.65940928      6.62789321      7.14186463       8     -0.00000000     -0.86404205     -0.00000000     -1.54351628      0.26820111     -0.01418690
O               7.66580477      9.73787105      7.14186463       8     -0.00000000     -0.34214861     -0.00000000     -1.27629197      0.49888090      0.26776053
O              10.26151399     11.39497211      7.14118453       8      0.33104999     -0.32453615      0.83970863      0.25932179     -0.11074878      0.19086232
Si             10.29183548      5.38937629      8.64580971      14      0.51054327      0.18856513     -0.11440296      0.42248322     -0.83486201     -0.42009976
Si              7.66218606      6.86554748      8.75782366      14     -0.00000000     -0.75987156     -0.00000000      3.12387579     -0.82797691     -1.66208233
Si              7.66462340      9.95239391      8.75121448      14     -0.00000000     -0.27806275     -0.00000000      2.03997630     -0.72887465      0.04895319
Si             10.37437372     11.48657366      8.78727981      14      0.31456219     -1.73832459      0.19940855     -0.17019696      0.61866960     -0.56023761
O               8.94355460      5.93505489      9.17363564       8     -0.00000000     -0.01348435     -0.00000000     -2.17628121      0.97030926     -0.35961386
O              11.65794098      5.75337127      9.23312338       8     -0.92452060     -0.78145999      1.03780483      0.28734096      1.12871621     -0.12929944
O               7.66808511      8.32391358      9.20129099       8     -0.00000000     -0.11837868     -0.00000000     -1.08442568      1.20026119     -0.10550652
O              11.64697148     10.60460287      9.25632783       8     -0.17597288      0.17980310      0.31588403     -0.90068993      0.74947107     -0.76519836
O               9.02223119     10.63560613      9.18100058       8      0.00000000      0.28331407      0.00000000     -0.59111624      0.11153598     -0.18997526
O              10.35647038     13.07285966      9.13751442       8      0.51439625     -0.50075678     -1.61760380     -0.37112451     -3.53327370      0.54348233
Si             15.60177537      5.59455003      5.66156543      14     -0.64984755     -0.06206774      1.51026500      0.22126433     -0.50467211      1.02201460
Si             12.87890596      6.78936349      5.52777350      14     -1.12221134      0.04523112     -0.50014727      0.86440621     -0.61838523      1.16776901
Si             12.98697647      9.90122354      5.48541636      14     -1.55241754      1.11768872     -0.84899371      1.88365717     -0.82677836      0.93672172
Si             15.72171174     11.29246273      5.46387766      14      0.92701586      1.34039015      0.11817227     -0.23819839      0.67263340      1.15650469
O              14.22113853      5.95510987      5.13190042       8     -0.62486308     -0.33481377      0.49078471     -1.42485754      0.58381646      0.17249357
O              16.92075518      6.11820910      5.09273729       8     -0.09620690      0.13798797      1.44185613      0.36146036     -0.15180380     -0.27862271
O              12.80400939      8.28412665      5.16958287       8      1.21446008     -0.32651330      0.86729460      0.34756972      0.98676965     -0.07046754
O              17.04197515     10.47567780      5.11574017       8      0.52432316     -0.40138236     -0.01775659     -0.07952024     -0.29277632     -0.15138745
O              14.38772831     10.52322439      4.95901749       8      2.01146073      0.13365347      0.54450701     -0.88333163     -0.46862883      0.84275748
O              15.76767032     12.85488145      5.17602668       8     -1.01255432      0.83252775      1.17207016     -0.28159653     -0.00237142     -0.29119764
O              15.69256384      5.31166795      7.23726093       8     -0.11372914      0.12438079     -0.53595414     -0.00840584     -0.21197469     -2.18605167
O              12.78437658      6.61868901      7.19033472       8      1.11921781      1.17516355     -0.69796929     -0.11966863      0.54294537     -1.32159695
O              13.08891837      9.80332281      7.14272471       8      0.29000641      1.49988099     -0.18523244     -0.35845545      0.12659443     -0.35323546
O              15.69226728     11.20879332      7.11447626       8      1.06432068      0.15293147     -0.36526264     -0.78273393      0.07877868     -0.33075443
Si             15.68952217      5.62667935      8.75735565      14     -1.03499632      0.19576469      1.84179045     -3.72988074     -0.34596107      1.20451660
Si             12.83116450      6.82612772      8.79692869      14     -1.08954159     -0.23357690      0.27228758      1.81837754     -1.99396806      0.48198891
Si             12.97846621      9.92520413      8.76184709      14     -0.93547922     -0.80369259      0.87384184      0.62125637     -1.05141840      0.16535944
Si             15.62835122     11.32940556      8.73625709      14      1.35690301     -0.03514217      0.58417911      0.41242976     -0.44808125     -0.73171115
O              14.19021336      5.89095940      9.18548101       8     -0.43281370      0.67074897     -0.02949072      0.48725573      1.25594982     -0.58544043
O              17.06564558      6.02592068      9.25762689       8      0.26796112      0.10278947     -0.04718383     -0.59153154     -0.29377103      1.03017608
O              12.81998350      8.31742226      9.22856314       8      0.05955087      0.54639628     -0.48477441      0.03442816      0.47896474     -0.73905932
O              16.94327753     10.47149225      9.05794553       8     -1.07200460      0.57400440     -0.06408737     -0.82359121      0.51268618      1.04397310
O              14.37431264     10.48840205      9.29076722       8      0.63007139     -0.19224575      0.63749219     -0.46993206     -0.05049330     -0.68451940
O              15.60262200     12.83901362      9.18069062       8     -0.01742580     -0.70762584     -0.39666610      0.15419011      1.25950513     -0.35513292
Si             20.94934020      5.46350007      5.56304996      14      1.50849964      0.96491425      0.85970114      0.65193224      1.45318756     -0.44613286
Si             18.27821454      6.76908891      5.59212685      14     -0.63214250     -0.24786757     -0.49560493      1.99011487      1.45728580     -2.15528132
Si             18.43738916      9.86652149      5.56785043      14      0.62787107      1.91136239      0.10901107     -0.59467896     -0.81408749     -0.51146328
Si             21.00861967     11.40077484      5.52017713      14     -0.41866422     -0.56630939     -1.02840100      1.28200716     -1.42697308     -0.51768730
O              19.55997996      5.92545692      4.99896199       8      0.57707656     -0.24277229     -0.04857539      0.46705346     -0.74453835      1.20281270
O              22.37297395      5.94435457      5.09099066       8     -1.27457681     -0.47852547     -0.01727358     -0.49986228      0.10629960      0.26246571
O              18.57244074      8.27401346      5.23101367       8      0.14800926      0.37659484     -0.35703110     -0.61671525     -0.32199784     -0.55446584
O              22.18691053     10.39930633      5.02890401       8     -0.40803711      0.49624276     -0.73234485      1.56613288      0.09560652      0.47588883
O              19.71624149     10.62797588      5.09237429       8      0.18121383      0.00016036      0.80184798     -0.98564614     -0.30228301     -0.19282555
O              20.97508632     12.88720238      5.08155190       8      0.16089867     -1.16968868     -0.13152524      0.35891966      0.73735189     -0.33792889
O              20.96901007      5.25304785      7.15237238       8      0.55963746      0.13566347     -0.54776725     -0.31837814     -0.41729364     -2.20500135
O              18.30856927      6.65682606      7.15026951       8      1.32127146      0.38136510      0.27272870     -0.19980465     -0.05500434      2.74123549
O              18.42343180      9.66732941      7.15147654       8      0.38733540     -1.19372915      0.55779746     -0.20504003      0.14576640      0.74522288
O              21.10886788     11.33747984      7.11376486       8     -0.51761722      0.12505896      0.41473575     -0.02994809      0.05026531     -1.35507849
Si             20.98384546      5.62465544      8.65311090      14     -0.17760626      0.20179558      0.78236209     -0.83581104     -0.53471640      1.29358840
Si             18.31589889      6.84053858      8.82218131      14      0.53959702      0.95589651      1.08196922      1.02644492      0.36303040     -1.74438363
Si             18.33119286      9.86054337      8.75772853      14      0.56397451     -0.35138464      0.48291232      1.79165996      0.69171932     -0.75753692
Si             21.01125388     11.43195014      8.65970830      14     -0.07193814      0.30575131      1.17827680      0.49960369      0.52947368      2.42983677
O              19.54316037      5.90992778      9.17683448       8     -0.63572759      0.05107094      0.51860437      1.58121432     -0.12741745      0.24989706
O              22.40396424      5.96700646      9.10863344       8      0.47638446     -0.60910692     -0.69569718      0.56827106      1.24305272      0.06435685
O              18.35582486      8.32334003      9.25122136       8      0.05272305      0.01897763     -0.04632833      0.15701527      0.12273817      0.07242181
O              22.33491526     10.65075939      9.16863328       8      0.37544960      0.42518571      0.17532686     -0.90727137      0.46432331      0.02082504
O              19.68752678     10.65156456      9.07655624       8     -1.32512156     -0.38041850     -0.05157336     -0.72768110     -0.51226248      0.46280254
O              21.10532532     12.93084956      9.18930261       8     -0.68128206      0.20262144     -0.69339696     -0.41921686     -0.17503908     -0.08011204
Si             26.40678290      5.60767966      5.49246291      14     -0.31981362      0.05814365     -0.71224652     -1.47782906     -0.16708721      0.26526563
Si             23.72495917      6.83407517      5.43456793      14      0.14747234     -2.61492428     -0.78113659     -1.26443711     -2.42466350     -0.26322524
Si             23.67212516      9.87786276      5.45805501      14     -0.52917894      0.45048507     -1.03068923     -1.35120173      0.43517166     -0.77827567
Si             26.36349079     11.37991715      5.53586481      14     -0.20861082      1.41888264      0.62757432     -1.48678902     -0.25018378     -0.60873791
O              24.96123956      5.87654330      4.99120343       8      0.60175573      0.56922726     -0.74465461      0.10031816      0.14242132      0.42872203
O              27.70006635      6.17318370      4.92053466       8      0.60954924     -0.08827685     -0.17235937      1.08868964      0.14235744      0.22954500
O              23.88422162      8.30463673      5.08718913       8     -0.20380509     -0.28834600      0.08506748     -0.09399936      1.54859312     -1.09244915
O              27.64729200     10.62667572      4.97723206       8      0.07702480      0.53334234      1.80677919      0.81037895     -0.26238641      0.47340597
O              24.95161994     10.67775311      5.01899236       8     -0.65684464      0.03872028     -0.33208448      1.53462820      0.41527847      0.80336764
O              26.20235109     12.90800390      5.22503055       8     -0.33333578     -0.21117578     -0.83426891      0.42906119      1.76274995     -0.06506521
O              26.46851109      5.35938847      7.07096620       8     -1.10152096     -0.71748118     -0.40981591      0.02619280     -0.45887373     -1.35334907
O              23.69237974      6.77564050      7.03091826       8      0.16656278     -1.05764726     -1.20927495     -0.12827525     -0.02129589      1.30620349
O              23.65332226      9.73162137      7.04683751       8     -0.08164911     -0.50781333     -0.17570511     -0.06479255      0.66253486      0.64062345
O              26.53800523     11.21615659      7.13282642       8      0.26926516      1.22211126     -0.72619618      0.32267080      0.23232536     -0.32608080
Si             26.34431494      5.74289981      8.56901651      14      1.05585870     -0.51570655      0.56989572     -2.41443859      0.17721872      1.08964090
Si             23.60568890      6.97578107      8.64428286      14      0.82812188     -0.51724023      1.62323888      1.03454712     -1.30873481      0.13700141
Si             23.65703662     10.01999572      8.64751079      14      1.19431522     -0.48657590      0.51615631      1.41195699      0.17427395     -0.50187359
Si             26.47817973     11.41044531      8.72292127      14      0.55607616     -1.07007900     -1.07324037     -1.10509223     -0.08595115      0.65045151
O              24.91308974      6.08835504      9.09741711       8     -1.44794346     -0.01904245      0.27194777      0.52335520      0.26944125     -0.56451640
O              27.61109599      6.34027933      9.15058701       8      0.74263507     -0.15241518      1.03908285      1.51987509      0.43734326      0.77490504
O              23.56939186      8.47357408      9.05721110       8      0.52883216      0.30112128     -0.02264803      0.09384792     -1.45377422      0.64607035
O              27.64640690     10.46451864      9.36394189       8     -0.04525521      0.07301677      0.54529708     -0.04118725      0.83798757     -1.14028785
O              25.06120756     10.70520531      8.97514798       8      0.05169819      0.37422215     -0.59193427     -0.84817094     -0.59594547      0.54420760
O              26.36005392     12.95525565      9.14063381       8     -0.66393804     -0.57731107      0.17804556      0.66783569     -0.78208384      0.06009252
Si             31.66328228      5.58731886      5.62286132      14     -1.21803859      0.16096894      2.27685423     -0.60033605     -0.53204290      0.18140388
Si             28.98612366      6.98542996      5.49781836      14     -0.80070110      0.94468101      0.95499182     -0.22616446     -0.31995351     -0.48835866
Si             29.00294135      9.96835943      5.56097863      14     -1.70566706     -0.46759973      0.12764267     -1.60268411      0.55620993     -1.19116568
Si             31.71404112     11.37076006      5.51012365      14     -0.36085148     -0.29776191      0.24731789     -0.66422400      0.38160529      1.95861419
O              30.24107456      6.01815532      5.18640535       8      0.02364144     -0.08189347     -0.11729622      0.25921259      0.34554283      0.10971025
O              33.01877506      6.00858504      4.99109092       8     -0.29141594      0.67035872     -0.44304546     -1.21038618     -0.69800007      0.36391577
O              28.97851317      8.46119220      5.01854000       8     -1.06006670      0.09188248     -0.29739537      0.22331977     -0.79086097      0.00335360
O              33.00737140     10.55694972      5.11501294       8      0.83962200     -0.73779294      0.90975528      0.48686829     -0.44673407     -0.12491313
O              30.38116065     10.54406928      5.16274412       8     -0.00741095     -0.63544754     -0.20969982      1.62094125      1.05591020     -0.55311201
O              31.73206414     12.89516665      5.09586344       8      1.29686001     -0.94804787      0.43172165      0.00340281      0.84679952      0.14571177
O              31.57468307      5.11607928      7.16395732       8     -0.47992129      1.01291200      0.18284990      0.75537818      0.58425774     -0.33466579
O              28.86361144      6.96386916      7.10081233       8      0.52844199      0.54455926     -1.03345630      0.43204635     -0.38202052      0.97214377
O              28.98789526      9.85505376      7.13095970       8     -0.08878539     -0.57477812     -0.38084919     -0.27839165      0.02618939      2.73976365
O              31.71592580     11.29606915      7.19488135       8     -0.03403739     -0.92808839      0.20567278      0.18461842     -0.15783200     -1.39410737
Si             31.61224138      5.54531846      8.70457577      14      0.00036774     -1.18934262     -0.28368559      1.10205961      0.00600370      0.03065272
Si             29.01558616      7.02212771      8.75606543      14     -1.32080932     -0.43733730     -0.54252911     -0.81325824     -1.24873695     -1.30545897
Si             29.06104189      9.95661957      8.82297622      14     -0.49356137     -0.62272579     -0.09831972     -0.89978321      1.41476780     -1.87192558
Si             31.76849222     11.39841300      8.80033156      14     -1.18160277     -1.35475472     -0.25209775     -1.06867954      2.07195507     -0.16025552
O              30.20627585      6.01072201      9.11658809       8      0.11727289      0.90886002     -0.16551475     -0.21784349     -0.02245163      0.03802768
O              32.98446451      6.04240113      9.30045527       8      1.70801163      0.63635779     -0.72977150     -1.71193126     -0.85406213     -0.45937004
O              29.34185146      8.46091722      9.16806421       8      0.25842296      0.60563687     -0.92841317     -0.00217479     -1.20277395      0.76928590
O              33.15758599     10.84599034      9.30650737       8      0.25739316     -0.47199740      0.61846219      0.72826142     -0.95663398     -0.17902753
O              30.38061138     10.65809636      9.22287192       8     -0.03509816      0.05108276     -0.87087362      1.79336028      1.10883964      0.21282993
O              31.76444826     12.97028444      9.17686249       8     -0.23577182      0.37028910      0.16107408     -0.56493536     -0.87891640     -0.02863463
Si             37.02794830      5.70465228      5.62199379      14     -0.92643788     -0.28134690     -0.23848684     -1.34684594     -0.20974540      0.67968457
Si             34.22301623      6.84597274      5.59349681      14      1.91809619      0.89615365     -1.05951325      0.55248186      2.08402687     -1.48735237
Si             34.38744829      9.93967317      5.59229901      14      0.39569849      0.70600653      0.68637762     -0.16803566     -0.52987809     -0.52931991
Si             37.06023824     11.57201658      5.48156350      14      0.40141605      1.82615667      0.07608188      0.11926353     -2.05463286      0.30263075
O              35.55139176      6.05359692      5.28286374       8      0.25096041      0.32401581     -0.07768595      1.09849192     -0.71209442      0.19095624
O              38.36269526      6.10786809      5.02306270       8     -0.64514937     -0.72271517      0.99004808      2.03960779      1.14188176      0.47303684
O              34.39081322      8.32630766      5.06508463       8      0.46095360      0.26374651     -0.71624879      0.04792858      1.21510017      1.59122298
O              38.33116982     10.62318026      5.04680223       8     -0.84740943     -1.83368579     -0.27849537     -0.35299794      0.47631946      0.62892057
O              35.68591569     10.71772961      5.13525942       8      0.15034769     -0.58375805      1.40833391      1.02724848      0.55792666      0.20791002
O              37.23145934     13.07698641      5.05273352       8     -0.04667350     -0.22545137     -0.39661666     -0.44398542     -1.63425034     -1.07796508
O              37.09200302      5.43859655      7.20232756       8      0.40813116     -0.52262934     -0.53913186      0.27335158     -0.47736088     -1.00296733
O              33.89201505      6.83121890      7.14655755       8     -0.86607064     -0.23133030     -0.66631844      0.46110291      0.31235566      1.71920148
O              34.34392889      9.92537948      7.22472845       8     -0.42979187      1.18400799     -0.07082989      0.55907406     -0.91503819     -1.20582152
O              37.09177843     11.49306496      7.10101687       8      0.19810611     -0.41055805      0.46140294     -0.27767679     -0.54449805      0.75815617
Si             36.97564736      5.71383865      8.73762860      14      1.00249237     -1.51767370      0.49060972      1.13464535      1.01937020      0.87870959
Si             34.15004571      6.99283515      8.77936381      14     -0.41059698      0.06309120      1.36991759      0.37402844      0.26942381     -0.16261952
Si             34.43180076      9.99060152      8.82447370      14      1.23931643      0.41794309      1.35439629     -2.26090252      1.14926199      0.35514228
Si             37.07199445     11.42132897      8.74466241      14     -0.37980120     -0.66925551     -0.46676155      1.71999131      0.36458788     -0.95548517
O              35.51582087      6.14010601      9.01402259       8      0.85935662      0.24614423      0.59988519     -0.47735406      0.68781847      0.19067659
O              38.33266318      6.22774593      9.35483775       8      0.44976762     -0.39916203     -0.93829616     -1.23598482     -0.29594535     -0.78161215
O              34.01693869      8.49228693      9.26311966       8      0.18783425     -0.82075933     -0.18044246      1.12686248     -1.67493839     -0.67309360
O              38.42779963     10.62678759      9.18129421       8      0.47862223     -0.09843490     -0.80353302      0.20707794     -0.30155875     -0.40016917
O              35.83790463     10.54496018      9.23028865       8      0.87701349     -0.01125751      0.26786517      0.41185506     -0.30903466     -0.07618402
O              37.13283458     12.93957417      9.15986819       8     -0.98061065      0.81987307      1.18136589      0.02595439      0.18412387      0.40506023
Si             42.30662608      5.40130887      5.68881786      14      0.10944456      0.25970090     -0.03577304      1.24409795      1.36469779     -0.43286267
Si             39.71996800      6.94556848      5.61479616      14     -0.18164382     -0.94001316     -0.03356840     -1.46808890      0.82488555     -1.20023682
Si             39.73062284     10.02954840      5.52794053      14      0.63639949      0.31379482      0.33003301     -0.85384921      0.03711485      0.89532260
Si             42.50834710     11.41701496      5.53603064      14     -0.89645824     -0.49427018      0.05730086     -0.10019998     -0.32396765     -0.18794736
O              40.88509226      5.88371240      5.28717839       8     -0.08519560      0.07374171      0.61352200      0.42964698      0.12676981      0.27848061
O              43.60648234      6.08565008      5.07204663       8     -0.08649566      0.10676693      0.69115706     -1.39964012     -0.94933223      1.02100100
O              39.78265732      8.47379712      5.14786379       8     -0.20007178     -0.48245725      0.00345905      0.10584049     -2.97230820     -0.11827547
O              43.81615276     10.57933831      4.98280314       8     -0.06443296     -1.27301652      0.02398511     -1.79810323      0.39798107      0.33677286
O              41.04830849     10.76411989      5.16781960       8      0.41659061     -0.04324297     -0.66656545      1.91950147      0.63732379     -0.30765956
O              42.54952442     12.94459901      5.11890377       8     -0.37274499      0.09513932      0.51170689      0.51387889     -0.67149861     -0.42616439
O              42.45547416      5.02130341      7.22778957       8     -0.23313061     -0.02114797     -0.33939336     -0.27904582      0.25750903      0.42569257
O              39.54311140      6.83509663      7.21713271       8     -0.81932435      1.36777917     -0.60885517      0.14905202     -0.02919432     -0.94491668
O              39.77653598      9.76856870      7.14640155       8      1.12024195      0.72143781      0.60985144     -0.37022412      0.49493046      0.63796765
O              42.55166820     11.29266890      7.15366912       8     -0.12078481      1.51802203      0.55380271      0.31955927      0.15720223     -1.35117911
Si             42.27636962      5.43307252      8.78937302      14     -1.93631313      0.23289297      0.26126252     -0.80210009      0.57493437     -0.51618944
Si             39.69832992      6.93252865      8.80586737      14      2.16583385     -0.68704432     -0.87578186     -0.82022427     -0.95468697      0.74178752
Si             39.84367537     10.00120181      8.76160108      14      0.13026652     -0.77229699     -0.32372421     -0.01592340     -0.94928459     -0.33954418
Si             42.58134514     11.46444007      8.74174507      14     -0.82420702     -0.09770890     -0.51963339     -0.13295421     -0.81987711     -0.28009992
O              40.78703621      5.79752517      9.16088246       8     -0.94492992     -0.42040981     -0.04735436      1.96419947     -0.34400626     -0.59551894
O              43.58180360      6.10591572      9.29425243       8      0.24317962     -0.65339735      1.11843474      0.20312440      0.05079301     -0.57229711
O              40.01083577      8.36338717      9.25679661       8      0.36759534     -0.72982170      0.22201952     -0.23623811      2.30472627     -0.24336263
O              43.85011143     10.53324385      9.14933539       8     -0.15619809     -0.15781054     -0.68809200     -1.81703094      1.67769881      0.93950370
O              41.23729115     10.66674609      9.11159184       8     -0.52077266     -0.36430091      0.64903221     -0.52975136      0.09811572      0.59423925
O              42.62636546     12.99684724      9.09296542       8      0.20023673     -0.34560069     -0.29864236      0.38539462     -0.26696654      0.63773372
Si             47.58046717      5.59202893      5.68118686      14     -0.54208540      0.98521875     -0.68963898      0.65989232     -0.34750314      0.96915463
Si             44.96765736      6.81826778      5.50505927      14      1.25230829     -0.32688451     -0.98137344      0.24777937      0.36830746      0.41422739
Si             45.12484822      9.84861757      5.46068868      14      0.39626812     -0.46730244     -0.55996735     -0.95647946     -0.54029474      0.36406167
Si             47.82900035     11.38968844      5.50028148      14      1.41504974      0.49388014      1.40171526     -1.88623761      2.45189704      0.52705104
O              46.19986538      5.84506073      5.07833611       8     -0.79381548     -0.70029566     -0.17312645     -0.80816775      0.07782511      0.06233471
O              48.91407708      6.16019621      5.18224190       8     -0.63084193      0.49492480     -0.47345051      0.84311836      0.18479129     -0.72174804
O              45.24976513      8.28209392      5.00115221       8      0.73537540     -0.89732314      0.17799569     -0.54460766     -0.45833925      0.38204791