7907
energy=-151175.60854547 time=20000.00000000 temperature=292.92684346 cutoff=10.58354498 nneightol=1.20000000 pbc="T T T" Lattice="263.62410964       0.00000000       0.00000000       0.00000000      82.43324632       0.00000000       0.00000000       0.00000000      19.87617225" Properties=species:S:1:pos:R:3:Z:I:1:momenta:R:3:force:R:3
Si             35.38393707     77.81874098      8.49177444      14      1.75656005      0.08150019     -0.26397577     -0.86549706      0.04276177      0.12037464
Si             32.58133449     78.22156220      8.94486840      14     -1.17185892     -0.60830883      1.10729899      0.37316704      0.63778609     -0.44545154
Si             28.07069811     75.03565326      8.96053411      14      0.04178022      1.56660200     -0.34591041     -0.18843152     -0.79296298      2.30029039
Si             25.57775624     76.61565801      8.94159374      14      0.01895816      0.10160598     -0.33056173     -1.43194676      1.21928724     -0.79635971
Si             30.93519781     75.72069153      9.02327067      14     -0.40682637      0.17399746      0.01639007      1.11205983     -0.49278260      0.65020195
Si             42.47545771     76.55209072      8.84653942      14     -0.21104299      0.81381169     -1.27052322      0.01300343      1.97571439      0.08212959
Si             45.42839734     76.61168331      8.86011308      14      0.52387703      0.01494453     -0.04430189      1.61757567      0.36261387      0.44702687
Si             55.19559927     77.39175059      9.04919051      14      0.78009673      0.45149667      0.37561946      1.13527367      0.66850559     -0.58392741
Si             60.13475694     74.96044443      9.21412959      14      0.55957697     -1.05784900      0.33087342      2.68122068      0.67885245     -1.19370166
Si              8.64070509     74.04706118      9.00778604      14     -0.00000000     -0.12237618     -0.00000000      0.85845736     -0.43519781      0.23283438
Si             10.60456234     76.36559484      8.97070507      14      0.73737062     -0.45191868      0.01579945     -1.46593141     -0.03468239      0.17140438
Si             13.54602536     75.84832529      9.00847363      14      0.25123826      0.01256581     -0.25685611      0.80160679     -1.11657073      0.65817255
Si             50.49345172     74.46930228      9.14231706      14     -0.37691860      0.41217270      0.66314290      1.24038393     -1.30088895      0.61244985
Si             52.19671780     76.90253265      9.08805965      14      0.17508573      1.03577749     -0.32793357      0.31113938      0.50936002     -0.16999418
Si             20.07882448     75.35603090      8.92694570      14     -0.39600252     -0.40306351     -0.51328409     -1.28086706     -0.90278313      0.30231629
Si             38.19315147     73.15511524      9.12984195      14     -0.79676555     -1.47027884     -0.48102114     -0.68586093      1.05132387     -1.07808215
Si             15.14635882     73.33089873      8.97489835      14      0.19023710      1.08160225     -0.77277825     -0.51719612      0.25191449      1.60318547
Si             23.01886883     75.09997664      8.92487838      14      0.74702060      0.07633265     -0.84167129     -0.36435770      0.40259656      1.66352908
Si             33.35369170     73.71195418      8.93740341      14      0.72615947      0.08625407      0.81841366     -0.45383178      0.47422211     -0.45974733
Si             35.92998647     75.21896561      9.70360650      14     -0.21156707     -0.52392227      0.24143905     -0.49111113     -0.31975070      0.55616625
Si             41.11759927     74.08976279      8.94835538      14      1.06166675     -1.85954425     -0.16846363     -1.63973198      0.06926054     -0.00751818
Si             47.51011889     74.36678765      9.09989116      14     -0.52001903     -0.21715716     -0.66267498     -0.30601392     -1.50328430      1.73558952
Si             52.64908431     72.23546047      9.16251247      14     -0.83018966      0.15216297      0.54629006     -1.46209426     -0.55406127     -0.39973759
Si             23.96309308     72.23122020      8.93835781      14     -1.65874468     -1.21505728     -0.51879035      1.64966402     -2.03419771     -0.47997485
Si             18.15752453     72.99445525      9.01850763      14      0.16186254     -1.34170724     -0.48090794      1.21470771      0.97629720     -0.48299333
Si             55.58211769     72.76344433      9.19589671      14     -1.47580595      0.85576700     -0.87641802      0.12874993     -0.92120677     -1.52084189
Si             27.01808147     72.05215666      9.00739630      14     -1.29966415      0.25140419     -1.65843100      0.56796919     -0.63341459     -0.41918385
Si             46.08292138     71.66781381      9.13313341      14      0.92279738      1.92930140     -2.16415463     -1.78129223      1.87002948      0.51977052
Si             43.01047507     71.70290186      9.11277969      14     -1.32053219     -0.92700324     -0.76588922     -0.20094573     -0.43236399     -0.52167497
Si             10.11966529     71.41346500      9.09337765      14     -1.10619778     -0.44225138      0.19749022     -1.49807074      0.08228459     -1.34015744
Si             13.16008013     71.00405326      9.13726914      14     -1.19304387      1.19768855     -0.30142125      1.47677823     -0.52340745      0.77436550
Si             19.42690995     70.07862961      9.05984570      14      0.46161946     -0.87357815     -0.05966054     -1.54443970      0.97321065      2.52241959
Si             22.40952291     69.62773679      8.94749485      14     -0.39031846     -0.41201410     -0.42240217      0.50247377     -1.66599014      1.26377896
Si             28.63939056     69.47877187      8.99090604      14      1.24475672     -0.30721402      0.67071888      0.37723575      0.11955866     -1.55629559
Si             49.65452063     67.71021906      9.05734769      14      1.25317792     -0.45954707     -0.35370411      1.65894833     -0.32727293      0.46118591
Si              5.82921381     67.65293902      9.01138439      14      0.00000000      1.64232508      0.00000000     -0.17929074     -1.74335281      0.07295370
Si             31.50057032     68.71745127      9.01041867      14     -1.41232973     -0.05743293     -1.49055900      0.65356653      0.91721492      2.32863749
Si             33.91462415     70.71071369      8.99827054      14      0.73846741      0.33564794      0.60771367     -1.38419523      0.33085764      0.58894349
Si              8.47696299     68.83509396      9.10537591      14      0.00000000      1.22454077      0.00000000      0.43730007     -0.40009080      0.13962551
Si             56.70838583     69.93288664      9.15391822      14     -0.50153520      0.49377649      1.23549398     -1.10408143     -0.36024503     -0.59106208
Si             59.03739273     68.34446882      9.23936522      14     -1.25163253     -1.81418241      0.88060603      1.76563496      0.97988995     -0.90870337
Si             41.74533228     68.91608252      9.06734406      14     -0.28492399     -0.67647002      0.00188000      2.29513019     -0.63689489     -0.45073096
Si             38.87663699     67.90666793      9.10835740      14     -1.07844930      0.15691026      0.42222730     -0.38727532     -0.61806785     -1.38945442
Si             52.23960366     69.15489620      9.21145562      14     -0.92407917      0.01412811     -0.73241726      1.31962265     -0.69077919     -0.65520956
Si             14.25723199     68.12566412      9.13196164      14      0.39842267      0.26100080      1.64559808      2.26201963      1.07043111     -0.20833742
Si             17.32885236     67.78979044      9.04851727      14     -0.02422842      0.10554440     -0.12286313      0.80428801      1.27629558      0.59152781
Si             46.84387959     68.74239605      9.17193224      14     -2.08833687      1.41518859     -0.06042224     -0.36087647     -0.37318930      1.19766407
Si             24.01187846     66.93798827      9.00919230      14      0.09548934      1.09391330     -1.14924678     -0.15518897      0.81666206      1.16708470
Si             27.00221488     66.77749556      8.87265945      14     -0.76943478      0.68761804     -0.36381784      1.97624353      1.64105935     -0.25137558
Si             44.28537795     67.20667341      9.18554584      14     -1.30787629      0.61600290      0.37600796      0.29345895     -0.64653482     -0.80737480
Si             54.75482474     67.45242768      9.20298303      14     -0.12408689     -0.50144312      0.40506011      0.43373691      0.61590201      1.78956122
Si              9.60694882     65.94333697      9.10546552      14     -0.00000000     -0.89717393     -0.00000000     -0.31907995     -0.85480468     -0.06253269
Si             12.65135343     65.54997025      9.10781015      14     -0.15730260     -0.56548687      1.52662992     -0.08746457     -1.96531936     -0.66402527
Si             59.10777429     65.52628455      9.38835644      14      0.05548171     -0.91011657      0.31390703      1.74130616     -0.24471074     -1.32018743
Si             31.68537376     65.73191519      8.99506921      14      0.24334741      0.02639809      0.17906547      0.44196591     -0.75930851      0.95089557
Si             18.79447693     65.06003167      8.93249304      14      0.46526357     -1.04630761      0.94174490     -0.11763730      1.61057149      0.14618442
Si             21.87643677     64.68571981      9.04561728      14     -0.20714729      0.82400262      0.56972970      0.50501936     -1.09646491      0.18993728
Si             28.92577127     64.42943388      9.01343098      14     -0.04269181     -0.24649939      0.36283837     -1.47201382      0.39079135     -0.88643132
Si             38.90223160     64.85614749      9.01403340      14      0.97237776     -0.54830090     -0.21418440      1.67951665      0.21384017      1.19634963
Si             57.44968183     63.03905745      9.32916881      14     -1.62611510      0.11289531     -1.89869487      0.12557504     -0.19671204      0.28424729
Si             33.68011437     63.48969475      8.92315724      14      0.71935588      1.14552445     -0.24048854     -0.06849204      0.26542620      2.09386665
Si             41.48401779     63.29894888      9.04992497      14      0.13309792      0.92276417     -0.06962894      0.26009215     -0.45165207      0.22356581
Si             44.44215578     64.13548494      9.05641969      14     -0.27521971      0.95534688     -0.76155008     -2.22704361     -0.46874360      1.55511759
Si             54.79531327     64.38921785      9.25124200      14     -0.58077130     -1.88633719      0.03490590     -1.51568786      1.99527817      1.08230183
Si             36.60267670     62.80571185      8.95748559      14     -0.79644286      0.01646647      1.18195296      1.12462534      0.82732699      0.93059211
Si             49.63974709     64.69442402      9.05620388      14     -0.25968370      0.12534366      0.34298655      0.39760833      1.57929049      1.27884749
Si              6.83993749     64.78048231      9.11149768      14      0.00000000      1.19230550      0.00000000      0.15242930      0.00977491      0.07791314
Si             14.01067614     62.77238828      9.02580068      14      0.06263124      0.17199260     -0.94085876      0.25634869      0.79489326      0.38223262
Si             52.11786487     63.07834273      9.20811051      14     -0.57342087     -0.11312482      0.74981511      0.61770546     -0.16406948      1.05469127
Si              5.64065769     62.07959671      9.05860741      14      0.00000000      0.09499224      0.00000000     -0.17838534      1.04137099     -0.33848575
Si             17.05725554     62.56676027      8.99354068      14      0.41625603     -0.28369634      1.06314073     -0.04844826     -0.19967298      2.19144006
Si             47.14780801     62.96410120      9.10295117      14     -1.94682096     -0.07351894      1.10615403     -0.31885988      0.96592733     -0.73086969
Si             19.11112768     60.44285109      9.09141775      14     -0.17936522     -0.34069068      0.97152642      0.31974533     -0.57570098     -0.06108976
Si             37.79083137     60.02015471      9.13410130      14     -0.57799376      0.33036834     -0.04304869      1.29307550     -1.34547815     -1.87980859
Si             40.87289321     60.33661037      8.99807398      14     -1.04705908     -1.44427175     -1.29471475     -0.43633021     -0.23395399      0.43715716
Si             29.00351193     61.39459198      8.97941577      14     -0.39667675      0.37138477      0.40002010     -0.49870592      0.79270477      0.40692238
Si              9.88698631     58.81750530      9.11156144      14     -0.00000000     -1.06183256     -0.00000000     -0.94515929      1.54194327      0.05398131
Si             32.00633103     60.96025292      8.90621588      14      0.61341037     -0.21371808      0.97213981      0.14800769      0.65217444      1.76513485
Si              6.91496498     59.42486580      9.12374706      14      0.00000000      0.38803720      0.00000000      0.68420621     -0.08133366     -0.05584046
Si             12.49228364     60.13995047      9.16224051      14     -0.20198933     -0.44070767      0.41046629      2.16257953     -0.29580538     -1.16560896
Si             58.81401317     60.29752637      9.31381092      14     -0.62715149     -0.25489445     -1.06297665     -1.08761390      1.04427448      0.78433850
Si             23.83965515     59.24964693      9.10555805      14      0.62629854     -0.65912791     -0.57628426      0.05451757     -0.70558418      0.42487098
Si             26.94940970     59.15065459      9.05385825      14     -0.19861024      0.02661192     -0.13765727     -1.48758923     -1.85983189     -1.35062451
Si             43.20123603     58.47624908      8.94347364      14     -0.33643696      1.02743168      0.16989731      1.12280704      1.85204602      1.21922724
Si             56.84616026     57.94975271      9.30307945      14      1.58271237     -0.26070970     -0.20289402      0.01765203     -0.06044203      0.52075704
Si             46.20578624     58.07150373      9.02470632      14      1.29620094      0.57863919     -0.59861500     -0.31732317      1.19141567     -0.77789625
Si             48.45354937     60.22357916      9.05002007      14      0.30216375      0.18326947     -1.16131092     -2.09926317     -2.60885107     -0.59298950
Si             51.45040236     60.08767096      9.09304692      14      0.94201427     -0.02168960     -0.11803923      1.67739475      0.08730178      0.26802318
Si             53.69557572     57.91287161      9.09445237      14     -0.06659329      0.23897264     -0.87847852      0.25184142      0.52039411      0.67069881
Si             33.14075959     58.13176499      8.98240899      14      0.74936365     -0.75853350     -0.59906976      1.57270395      1.74873786     -1.57391923
Si             19.28568064     57.42044433      9.15364459      14     -1.13683844     -0.63121753      0.26870187      0.86307987     -1.29478551     -0.79716369
Si             36.08989014     57.39230787      9.17036992      14     -0.02290256      0.35453667     -1.63635693      0.73098385      1.15397281     -2.48026364
Si              5.68276875     56.69377405      9.05907184      14     -0.00000000     -0.56132682     -0.00000000     -0.06479094     -0.99290188      0.24628904
Si             22.28283884     56.58894342      9.09844042      14      0.57359442      0.10297974      0.89056562      0.39513547      1.41291076      0.71181466
Si             16.66084881     55.94942706      9.18683790      14      0.91736992      2.20293466      0.41068865     -1.65702496     -0.04451459      1.70349163
Si             28.15081380     56.33384446      9.09124553      14      2.24668796      0.99502812      0.06359095     -0.32260651      1.04369803     -0.23726591
Si             31.16984145     56.00420991      8.98817918      14      1.16584784      0.74001442     -2.32032458     -0.63755981     -0.32230406     -0.67042006
Si             58.14999714     55.16612521      9.29299392      14     -0.47535701     -0.55574577     -2.67004305      0.02218931      0.77562033     -0.12744354
Si             11.17099061     56.11951528      9.17717567      14      0.40766758      0.72087494      0.51233231      0.76205282      0.07049272      0.39673818
Si             42.76953186     55.48847161      8.95288259      14     -0.36411662     -0.73568524      1.85452486      0.59336548      0.09042838      1.18990720
Si             45.71127715     55.02781508      9.12219873      14     -0.58599664     -0.09500543      0.24936198     -0.12036826      0.41184026     -1.86144755
Si              9.72032373     53.48670743      9.13369688      14     -0.00000000     -0.74265445     -0.00000000      0.52410635     -1.11142674      0.78671649
Si             47.81877672     52.80505012      9.13322643      14     -0.65928535      0.90750911     -0.64374086     -0.39092671     -0.20263459      0.77882228
Si             53.26014953     54.89070938      9.16154353      14     -0.24599841     -0.54373782      2.67497169      0.83596981     -0.14479881     -1.01640261
Si              6.67525449     53.88824412      9.12494737      14     -0.00000000     -0.79963409     -0.00000000      1.12435536     -1.62721667      0.22961163
Si             50.83087308     53.20413583      9.14093566      14      0.74478490      1.53579905     -0.15066907     -0.08356219     -0.52563495      1.67060952
Si             23.46985160     53.82893969      9.17578742      14      0.08387293     -0.43865033      1.00209163     -1.41380221      0.52295491     -0.59078248
Si             26.52349680     53.82465596      9.08506698      14     -0.13814396      1.00001496     -1.71933867      0.44424570      0.21940009      1.35068362
Si             37.44833462     54.59898510      9.13867500      14     -0.52721934      0.45673597     -1.12805435     -0.16208949      1.35486455     -0.66839363
Si             40.36314193     53.67134572      9.02975441      14      0.81012787     -0.21760354      1.56036858      0.14153363      1.78059675      0.91835237
Si             32.62326967     53.39018119      8.92040624      14     -0.17095790      1.13848064      0.40807590     -0.60044792      0.10815720      0.54487276
Si             35.44997700     52.35527727      9.02056261      14      0.02864847      0.69509151      0.79518314     -0.69744369     -0.85703731     -0.08116751
Si              5.20325235     51.26648450      9.01885780      14      0.00000000      0.34785466      0.00000000      0.13619643      0.24938020     -0.08148500
Si             16.44967874     52.87622116      9.24918991      14     -0.18263714      0.30433452      1.30418554     -0.94810462      1.07390048     -1.18477157
Si             14.33005591     50.81016183      9.19566223      14     -0.07392727     -0.34732212      0.40169145     -1.24305698      0.44525422     -0.36273161
Si             55.83847417     53.07856627      9.20092432      14     -0.07108069      0.31990824      0.57214016     -0.62883020      1.16125059      1.08414681
Si             11.25928579     50.89792738      9.11977827      14     -0.86892590     -0.03377719      0.28977960     -0.35703037     -1.36911675      1.36765167
Si             18.81166255     50.99233273      9.19920431      14     -0.94482009     -0.23108911      0.22920626      0.64858094      1.33172307     -1.13291400
Si             56.42967918     50.14656142      9.28757557      14      0.60236622      0.64763026      0.74386557      1.58446882     -0.59171021     -0.59469722
Si             21.84365026     51.24071916      9.24127986      14     -0.96786208      2.23467143      1.00813796     -0.18795332     -1.28892131     -0.43212740
Si             28.02900229     51.17013751      9.12989541      14      1.15206264     -0.87675124      0.17987012      2.46804423      0.89798869     -0.49316465
Si             30.96432968     50.77969816      8.95330547      14     -1.08106987      0.43852478     -0.59053977      0.34916214     -2.52937460      0.53900009
Si             41.06056526     50.66186766      9.11403879      14      0.71703295      1.24823802      0.71068413      0.50198060     -0.72588130     -0.76567813
Si             43.79371631     49.24603816      9.26161012      14     -0.03315404      0.05099356      0.61675434     -2.64612329      0.48740309      0.10228280
Si             35.92804636     49.32856047      8.98301726      14      2.49899511      0.09170605      2.22334606      0.00059274     -0.40013500      2.71911299
Si             46.77604683     49.87018972      9.11025662      14      0.19762276      0.20167612     -0.76688289      0.57221032      0.60950173      2.01381071
Si             38.78289566     48.63662506      9.03025544      14     -0.26163760      0.41475761     -0.97239090      0.06549887     -1.34609533      1.24083872
Si             49.35278240     48.35460760      9.12692859      14     -0.57887997      0.74365253     -1.73616914      1.09071214      0.99522439     -0.56888013
Si             51.61829440     50.48820011      8.95183161      14      0.65257935      0.52358454     -0.55321118     -1.07537689     -1.81225645     -0.41605490
Si              6.76809562     48.75631725      9.01804696      14      0.00000000      0.35302092      0.00000000     -0.43184737      0.36879404     -0.19509790
Si              9.71804815     48.27497046      9.27175976      14      0.00000000      0.46526508      0.00000000     -0.95259258      0.35990846     -0.92045735
Si             23.33228238     48.52620621      9.25740454      14      0.09813274      0.89017313      0.15960173      2.28828820      2.54212028      0.41058993
Si             26.50488859     48.45636047      9.23248455      14     -1.35719645      0.75137841      0.94003130     -0.98474003      2.63613334      0.21637162
Si             52.12039239     47.73705607      9.29660781      14      0.99162988     -0.81122512      0.23931499     -1.25460202     -1.64060954      0.18980707
Si             16.65445610     49.01508121      8.89712007      14      0.98248548     -0.21616614      0.64455472      0.64897245     -0.27012959      0.55776131
Si             33.10997787     48.46525591      8.93755999      14     -1.09556161     -0.48935173      0.25106875     -0.86578858     -1.23774959      0.56047114
Si             54.95825621     47.42975724      9.33289511      14     -2.16606003     -0.68153875      0.59615315      1.66678163     -0.45366550      1.09352801
Si             10.72956425     39.18196752      8.90564031      14     -0.60327415     -1.06381661     -0.72739783     -1.61682640     -0.02612595     -1.01195831
Si             40.61457770     46.29262879      8.64723687      14     -1.54266807      0.48378354     -0.10408602      0.31485972      0.07799112      1.34826843
Si             43.44898169     46.14048590      9.38358558      14      1.12795124      1.04290040      0.44765495     -0.83524789      1.16952840     -0.03141793
O             190.76514606      9.20907691      5.25465529       8      0.91839448     -0.24231664     -0.86036562      1.05797731      0.68848952     -0.28397952
Si             28.66712209     46.56332454      9.04979328      14     -1.35549856     -0.76512251     -0.32859391      0.34751222      0.50764040      0.18265425
Si             57.60181282     46.40016873      9.03698348      14     -1.13475093      0.48156038     -0.19608255      0.32436932      0.29414464      1.01069355
Si              7.89872600     38.00318145      9.18550480      14      0.00000000      0.29999600      0.00000000      0.88097116      0.84767226     -0.33057008
Si             31.04913203     46.44389688      9.04012006      14      1.60483476      0.11279499     -1.01485031      0.84137264     -0.56695837     -0.14555266
Si             16.13346496     38.72140613      8.74421337      14     -0.34411451     -0.07065809     -0.29545985      1.23643335      0.32770079      0.85176256
Si             18.99453924     38.12320232      9.05269029      14     -0.72624251     -0.46186529     -0.50141572     -1.33284130     -0.81800203      1.15634587
Si             21.76044703     38.74121540      8.70771286      14      0.01335002     -0.11817674      0.12327200     -0.15637599     -1.11337370      2.69800785
Si             49.22891991     39.06200189     10.09573207      14      0.71341637      0.25885103      0.77037865      0.00518005     -2.48857727     -1.61982910
Si             13.37187959     37.86387507      9.12159554      14     -0.74122925      0.32878453      0.73663694     -0.02559182      1.26699030      0.48765521
Si             51.94705146     37.99718809      9.44432862      14      0.07116340      0.33955157      0.87952442      0.17341367     -0.05448637      0.85866556
Si             42.24658199     35.77844613      9.21480282      14     -0.15373028      1.84383292      0.22078060     -2.45393430     -0.92780479     -0.55940394
Si             45.05131476     35.05517880      9.63743262      14      0.65767866     -0.23569795      0.17711137      2.95658547     -1.64404225     -0.36553633
Si             36.80337248     36.70308642      9.80056922      14      1.08624114     -0.36446729     -0.06065027     -0.23279569      1.31812098      0.45999274
Si             26.47207344     36.11512567      9.09316774      14     -0.06052196      0.86560184      0.35239708      0.33327502     -0.06167261     -0.31910033
Si             34.17250264     34.90643819      9.53599334      14     -0.58105370     -0.42456167      0.55287371      2.97534668      0.39007759      1.03510444
Si             23.54424164     36.27363430      9.12494260      14     -0.39018520      0.26656208      0.19613333     -0.66322659      1.65474466     -0.43235364
Si             47.82567389     36.18641131      9.76900854      14      0.99625550     -1.07131010     -0.31506069     -0.85646760      1.08290553      0.40666222
Si             28.93387873     34.23451794      9.31957043      14      0.76104414     -0.77026587      0.17821271     -0.81876436      1.68911656      0.71712940
Si             31.33583178     36.10110353      9.45907693      14     -0.39397957     -0.73726752     -1.06840322      0.49286503     -2.25537629     -0.55644964
Si              8.05004530     34.88710151      9.13141498      14      0.00000000      0.24243570      0.00000000     -0.02291036     -0.37354108      0.62915495
Si             16.20117487     33.57355204      9.27582804      14     -1.34986433     -0.45973182      1.96432415      0.16614654      0.13017444     -0.45643991
Si             39.36918728     34.94990843      9.64832480      14     -1.21154408     -2.40852177      0.13252332     -0.35502635      0.05222260     -0.78898170
Si             52.84717304     35.20539818      9.78276766      14     -0.97046925      1.43215733      0.88075508     -0.32562321      1.46116160      0.30439650
Si             13.40081905     34.91112694      9.12909655      14     -0.62638850      0.26570602      0.76541216     -0.39077365     -0.99384078      0.40820445
Si             18.86755476     35.01502678      9.21452987      14     -0.29400711      0.39873779      0.95987503     -0.68986679     -0.34963267     -0.71229208
Si             50.00104965     34.10097160      9.70266510      14     -0.07435370      0.10740161     -0.26487082      1.13612382      0.89969224     -1.61609128
Si             21.64162355     33.93038264      9.26920339      14      0.08846197      0.13154877     -0.81992726      1.07895824      0.02048332     -1.09439182
Si             54.63964611     33.06329340      9.45178631      14      0.00075754     -0.04275686      0.91468017      0.87962382     -2.27387556     -0.53167752
Si              5.51811768     33.18762157      9.08581249      14      0.00000000      0.93017209      0.00000000      1.08518780      0.04571102      0.73987648
Si             10.71858984     33.31550596      9.12695055      14     -0.47757877      0.89823810      0.09895902      0.30844512      2.15055926      0.44661667
Si             57.63044609     33.54795770      9.46132680      14     -0.31436117     -0.49595131      0.68249281     -1.17804486     -0.04083483      0.33379228
Si             34.53581619     31.77616360      9.53559646      14     -0.42457931      0.81594549      0.19095616     -0.94742542      2.27792298     -0.27169457
Si             36.98934099     30.02488242      9.40116547      14      0.18192518      0.66692075      0.30135401      0.80274323      0.10889410     -0.15059146
Si             39.48462923     31.88086551      9.39499377      14      0.47645793     -0.60889901      0.73170435     -0.77380906      1.62842283      0.40433487
Si             16.73089511     30.53538376      9.29359687      14     -0.48735692      0.79479025     -0.81062680      0.75929171     -0.17014986      1.60659384
Si             31.92855476     30.14289683      9.37742771      14      0.56189316      1.14342847     -1.36854103      0.57242624      0.47011968     -0.01858311
Si             22.15206157     30.95024358      9.20831419      14     -0.19108993      0.50214919     -0.80701019     -0.30589576     -0.05381451     -0.14928346
Si             24.19984645     28.71456311      9.29555365      14      2.17796465      0.31956500      0.11646041      1.13532159     -0.55606508     -0.22631457
Si             29.08127870     31.27253431      9.31931925      14      0.66640848      1.35991692     -1.29591282      0.15905832     -2.49170893     -1.91388523
Si             42.22121654     30.50308447      9.39093621      14     -0.64865198      0.33475311      0.80285403      1.23446627      0.58050007     -1.39741573