7907
OrigWidth=248.62410964 OrigHeight=67.43324632 cell_origin="-131.81205482    -41.21662316     -9.93808612" strain=0.10000000 is_cracked=F n_efield_old=3 energy=-151244.98526640 cutoff=10.58354498 nneightol=1.20000000 pbc="T T T" Lattice="263.62410964       0.00000000       0.00000000       0.00000000      82.43324632       0.00000000       0.00000000       0.00000000      19.87617225" Properties=species:S:1:pos:R:3:Z:I:1:dipoles:R:3:clamp_mask:I:1:pos_orig:R:3:map_shift:I:3:n_neighb:I:1:force:R:3:charge:R:1:fixdip:L:1:efield:R:3:efield_old1:R:3:efield_old2:R:3:efield_old3:R:3
Si             35.53801767     78.08813210      8.92171759      14      0.00000000      0.00000000      0.00000000       1     35.53659441     78.08586401      8.92185886       0      -1       0      89      0.00131074      0.00190106     -0.00028222      2.85911880    F     -0.80963486     -4.19286236     -1.03239523      0.19990311     -2.43695450     -0.15934484      0.19990311     -2.43695450     -0.15934484      0.19991252     -2.43694446     -0.15934140
Si             32.48590804     78.29357826      8.92887304      14      0.00000000      0.00000000      0.00000000       1     32.48424600     78.29318823      8.92875677       0      -1       0      88      0.00106098      0.00028029      0.00013884      2.85911880    F      0.03085804     -3.89091507     -1.10913522     -0.61802632     -1.98838996     -0.24325832     -0.61802632     -1.98838996     -0.24325832     -0.61800871     -1.98837402     -0.24325652
Si             28.04733493     75.06018212      9.02259380      14      0.00000000      0.00000000      0.00000000       1     28.04553967     75.05870265      9.02253423       0      -1       0     122      0.00077363      0.00130987     -0.00003846      2.85911880    F      0.36774818     -1.32600757     -1.36393361      0.32940148     -1.51228809     -1.27066140      0.32940148     -1.51228809     -1.27066140      0.32937424     -1.51226363     -1.27066986
Si             25.59197406     76.72277041      8.94635886      14      0.00000000      0.00000000      0.00000000       1     25.58711782     76.71821797      8.94652763       0      -1       0     101      0.00259394      0.00400382      0.00046956      2.85911880    F      0.15153756     -3.40953913     -0.63317704      0.17344865     -1.90668721     -0.02260630      0.17344865     -1.90668721     -0.02260630      0.17349718     -1.90672751     -0.02262684
Si             31.01541894     75.72599870      9.01470107      14      0.00000000      0.00000000      0.00000000       1     31.01291654     75.72579818      9.01475943       0      -1       0     103      0.00145275      0.00036794      0.00010218      2.85911880    F     -0.00255498     -1.29420789     -1.37888728     -0.00712881     -1.46100064     -1.44138113     -0.00712881     -1.46100064     -1.44138113     -0.00711520     -1.46101702     -1.44135843
Si             42.47215629     76.38427952      8.97230940      14      0.00000000      0.00000000      0.00000000       1     42.47238052     76.38311920      8.97191427       0      -1       0     101     -0.00008388      0.00078090     -0.00003765      2.85911880    F     -0.51565805     -3.60918050     -0.87497029     -0.90945560     -2.01880172     -0.35492651     -0.90945560     -2.01880172     -0.35492651     -0.90946448     -2.01877078     -0.35492695
Si             45.49023983     76.52504337      8.98869635      14      0.00000000      0.00000000      0.00000000       1     45.49063193     76.52392481      8.98829867       0      -1       0      99     -0.00008140      0.00047362      0.00008534      2.85911880    F      0.83431908     -3.17528965     -0.88851273      0.98522724     -1.64966823     -0.33647118      0.98522724     -1.64966823     -0.33647118      0.98523888     -1.64965569     -0.33646782
Si             55.15929907     77.36480549      9.03878984      14      0.00000000      0.00000000      0.00000000       1     55.16258772     77.36044112      9.03877001       0      -1       0      97     -0.00209546      0.00319323      0.00000017      2.85911880    F      0.89335361     -3.75086214     -0.90467855      1.17835241     -1.84869180     -0.38920340      1.17835241     -1.84869180     -0.38920340      1.17833171     -1.84869229     -0.38920024
Si             60.09511876     74.96676374      9.14367790      14      0.00000000      0.00000000      0.00000000       0     60.09703248     74.96797250      9.14353548       0      -1       0     116      0.00024627     -0.00064834     -0.00001472      2.85911880    F     -0.11240057     -1.31089197     -1.34215250      0.00508929     -0.89365642     -1.03511982      0.00508929     -0.89365642     -1.03511982      0.00508506     -0.89364462     -1.03513284
Si              8.64070509     74.04276020      9.00778604      14      0.00000000      0.00000000      0.00000000       1      8.49810318     73.98300535      9.09157714       0      -1       0      72      0.09694395      0.04893615     -0.05915390      2.85911880    F      4.02698284     -2.39800324     -1.29591326      1.31387023     -1.95670841     -0.25309083      1.31387023     -1.95670841     -0.25309083      1.31461712     -1.95584619     -0.25350507
Si             10.53478801     76.42541097      9.00203318      14      0.00000000      0.00000000      0.00000000       1     10.43696033     76.16243939      9.01321487       0      -1       0      65      0.06948053      0.18272955     -0.00291869      2.85911880    F      1.00465031     -3.06853759     -2.16078149      0.34864964     -0.84445606     -0.71151570      0.34864964     -0.84445606     -0.71151570      0.34853348     -0.84492892     -0.71142906
Si             13.51137263     75.94300024      9.00696163      14      0.00000000      0.00000000      0.00000000       1     13.42722591     75.83866185      9.00227159       0      -1       0      79      0.06350418      0.07475557      0.00280973      2.85911880    F      0.81309401     -3.50714129     -1.04874261      1.28928824     -1.70050593     -0.42195271      1.28928824     -1.70050593     -0.42195271      1.28969577     -1.69985044     -0.42191300
Si             50.55607960     74.40184463      9.06627989      14      0.00000000      0.00000000      0.00000000       1     50.55698851     74.39912318      9.06616357       0      -1       0     118     -0.00050906      0.00236533      0.00008294      2.85911880    F      0.04710029     -1.37341145     -1.37128773      0.05818803     -1.70377706     -1.43463091      0.05818803     -1.70377706     -1.43463091      0.05818726     -1.70377377     -1.43463989
Si             52.18308466     76.88827170      9.02849921      14      0.00000000      0.00000000      0.00000000       1     52.18679921     76.88382374      9.02847669       0      -1       0      95     -0.00237926      0.00351422     -0.00000088      2.85911880    F     -0.03335268     -3.32233073     -0.87024496     -0.59302176     -1.81936173     -0.34946325     -0.59302176     -1.81936173     -0.34946325     -0.59301488     -1.81935637     -0.34946341
Si             20.11140199     75.41619458      8.97359649      14      0.00000000      0.00000000      0.00000000       1     20.10527193     75.41269047      8.97317891       0      -1       0     100      0.00293536      0.00080617      0.00093979      2.85911880    F      0.58458160     -2.77228245     -0.50887682      0.27857608     -1.68526444     -0.06086737      0.27857608     -1.68526444     -0.06086737      0.27865651     -1.68540100     -0.06095139
Si             38.09753135     73.08060068      9.04159811      14      0.00000000      0.00000000      0.00000000       0     38.09691565     73.07887363      9.04160319       0      -1       0     133      0.00021880      0.00043420      0.00016606      2.85911880    F     -0.26542667     -0.65830922     -1.26358100     -0.36669076     -0.99178412     -1.14459529     -0.36669076     -0.99178412     -1.14459529     -0.36666355     -0.99177981     -1.14458570
Si             15.12200073     73.45378440      9.05856863      14      0.00000000      0.00000000      0.00000000       1     15.11802524     73.41827153      9.06046882       0      -1       0     109     -0.00038626      0.02368454     -0.00121958      2.85911880    F     -0.02812798     -1.34096480     -1.42879547      0.20773711     -1.60025406     -1.41510235      0.20773711     -1.60025406     -1.41510235      0.20823894     -1.60038993     -1.41517138
Si             23.06832666     75.16059931      9.04174664      14      0.00000000      0.00000000      0.00000000       1     23.06345026     75.15794598      9.04160086       0      -1       0     104      0.00283415      0.00245174     -0.00006834      2.85911880    F      0.67438183     -1.85291476     -1.41416792      0.58332367     -1.66739007     -1.21315025      0.58332367     -1.66739007     -1.21315025      0.58320350     -1.66745251     -1.21315757
Si             33.28673868     73.77067379      9.03749189      14      0.00000000      0.00000000      0.00000000       0     33.28439522     73.76955919      9.03741045       0      -1       0     132      0.00043345      0.00043844      0.00000865      2.85911880    F      0.48818743     -0.41926182     -1.19892568      0.51718351     -0.92175607     -0.79049580      0.51718351     -0.92175607     -0.79049580      0.51717506     -0.92172674     -0.79049788
Si             35.95459927     75.23951001      9.02683347      14      0.00000000      0.00000000      0.00000000       1     35.95324481     75.23736015      9.02692694       0      -1       0     107      0.00119103      0.00167991     -0.00018770      2.85911880    F     -0.64328345     -1.57598150     -1.07250587     -0.62166421     -1.67706381     -1.05727734     -0.62166421     -1.67706381     -1.05727734     -0.62163606     -1.67703185     -1.05728668
Si             41.03591287     73.83802140      9.04258864      14      0.00000000      0.00000000      0.00000000       1     41.03518096     73.83724362      9.04239355       0      -1       0     121      0.00027982      0.00061471     -0.00006177      2.85911880    F      0.05310455     -1.61120818     -1.06190972     -0.01598347     -1.74070552     -1.28796949     -0.01598347     -1.74070552     -1.28796949     -0.01599035     -1.74070030     -1.28796209
Si             47.48888668     74.34979219      9.05194082      14      0.00000000      0.00000000      0.00000000       1     47.48977580     74.34895449      9.05173779       0      -1       0     118      0.00007627      0.00049669     -0.00002482      2.85911880    F      0.12929462     -1.59058937     -1.29395640      0.17887118     -1.83087388     -1.37795612      0.17887118     -1.83087388     -1.37795612      0.17886720     -1.83087511     -1.37795261
Si             52.45549960     72.07284408      9.08649897      14      0.00000000      0.00000000      0.00000000       0     52.45566066     72.06871589      9.08626669       0      -1       0     144      0.00011754      0.00045179      0.00006479      2.85911880    F      0.60275549     -0.33700621     -1.19322392      0.69164648     -0.87703733     -0.78625195      0.69164648     -0.87703733     -0.78625195      0.69167308     -0.87701816     -0.78623447
Si             24.10416553     72.27981038      9.04441114      14      0.00000000      0.00000000      0.00000000       0     24.10209893     72.27743531      9.04401103       0      -1       0     132     -0.00038632      0.00064603      0.00006130      2.85911880    F      0.15409605     -0.70715909     -1.16765789      0.27736333     -1.08942875     -1.07680394      0.27736333     -1.08942875     -1.07680394      0.27738553     -1.08937492     -1.07680897
Si             18.17302373     73.15932453      9.05533559      14      0.00000000      0.00000000      0.00000000       1     18.17062414     73.15480622      9.05438257       0      -1       0     124     -0.00094236      0.00272666      0.00097579      2.85911880    F      0.22155927     -1.36232103     -1.35932575      0.22166202     -1.62482227     -1.23854709      0.22166202     -1.62482227     -1.23854709      0.22137690     -1.62485568     -1.23869427
Si             55.41643229     72.55839157      9.10395451      14      0.00000000      0.00000000      0.00000000       0     55.41741426     72.55436553      9.10385690       0      -1       0     146      0.00071959     -0.00017697     -0.00006133      2.85911880    F     -0.64488792     -0.84331376     -1.16081425     -0.36464982     -1.25622590     -0.80085273     -0.36464982     -1.25622590     -0.80085273     -0.36469403     -1.25621681     -0.80085053
Si             27.17145904     72.15157974      9.04517638      14      0.00000000      0.00000000      0.00000000       0     27.16978399     72.15011158      9.04483202       0      -1       0     133     -0.00082609      0.00051107     -0.00011541      2.85911880    F     -0.19050487     -0.48547486     -1.14861517     -0.02268586     -0.76245416     -1.10238180     -0.02268586     -0.76245416     -1.10238180     -0.02271784     -0.76248592     -1.10237164
Si             46.07048844     71.67854811      9.06080321      14      0.00000000      0.00000000      0.00000000       0     46.06972090     71.67830060      9.06060277       0      -1       0     143      0.00045059      0.00027607      0.00003912      2.85911880    F     -0.41428669     -0.89242568     -1.05243490     -0.23594898     -1.45889711     -0.99091728     -0.23594898     -1.45889711     -0.99091728     -0.23593520     -1.45890813     -0.99091462
Si             43.01641176     71.53890550      9.05636158      14      0.00000000      0.00000000      0.00000000       0     43.01564721     71.53777988      9.05619962       0      -1       0     143      0.00042877      0.00080645     -0.00000016      2.85911880    F      0.07141911     -0.56839274     -1.08729442     -0.23243869     -1.16931895     -0.85509850     -0.23243869     -1.16931895     -0.85509850     -0.23242160     -1.16931884     -0.85509683
Si             10.12688360     71.44421598      9.08675203      14      0.00000000      0.00000000      0.00000000       0     10.13993168     71.42957039      9.09473593       0      -1       0      95     -0.00750487      0.00162760     -0.00045592      2.85911880    F      0.88287866     -0.99185121     -1.37108989      1.03127520     -1.48454831     -1.47061905      1.03127520     -1.48454831     -1.47061905      1.03079436     -1.48685895     -1.47021873
Si             13.16015811     71.09912196      9.08182960      14      0.00000000      0.00000000      0.00000000       0     13.17710262     71.04958159      9.08024477       0      -1       0     116     -0.00819480      0.00179228      0.00085460      2.85911880    F      0.43063215     -0.76151773     -1.31437005      0.56297388     -1.37077158     -0.98219286      0.56297388     -1.37077158     -0.98219286      0.56282285     -1.37071220     -0.98245639
Si             19.33501855     70.35558983      9.06254257      14      0.00000000      0.00000000      0.00000000       0     19.33548495     70.35243784      9.06216709       0      -1       0     146     -0.00291130     -0.00128919      0.00024076      2.85911880    F     -0.08511209     -0.64028779     -1.14250020     -0.03132659     -0.87889137     -0.97444033     -0.03132659     -0.87889137     -0.97444033     -0.03132586     -0.87921672     -0.97443103
Si             22.33361626     69.80078261      9.06057102      14      0.00000000      0.00000000      0.00000000       0     22.33410802     69.79633377      9.06001908       0      -1       0     148     -0.00181903      0.00208461      0.00019687      2.85911880    F      0.24930449     -0.10073322     -1.14395562      0.28141938     -0.43000430     -1.02331283      0.28141938     -0.43000430     -1.02331283      0.28129945     -0.43003522     -1.02335739
Si             28.60541026     69.48122804      9.05324767      14      0.00000000      0.00000000      0.00000000       0     28.60193053     69.47823896      9.05295169       0      -1       0     155     -0.00086793      0.00036282      0.00019531      2.85911880    F      0.06174278     -0.46839078     -1.08555026      0.00970052     -0.53706290     -1.00715061      0.00970052     -0.53706290     -1.00715061      0.00971761     -0.53707953     -1.00717212
Si             49.43898310     67.47152876      9.07271711      14      0.00000000      0.00000000      0.00000000       0     49.43716328     67.46886283      9.07249170       0      -1       0     159      0.00006600      0.00026906     -0.00042202      2.85911880    F     -0.05813022     -0.01999390     -0.89837528      0.12868238     -0.22838506     -0.93785768      0.12868238     -0.22838506     -0.93785768      0.12868434     -0.22842078     -0.93789667
Si              5.82921381     67.82289378      9.01138439      14      0.00000000      0.00000000      0.00000000       0      5.75007778     67.76990578      9.11629918       0      -1       0      84     -0.00407274     -0.00736237      0.00058457      2.85911880    F      4.07546239     -0.95705739     -1.01471262      2.37697833     -0.33660901      0.04885450      2.37697833     -0.33660902      0.04885450      2.37723595     -0.33681669      0.04881534
Si             31.57299362     68.76836289      9.05391461      14      0.00000000      0.00000000      0.00000000       0     31.57041592     68.76679161      9.05361472       0      -1       0     154     -0.00024936      0.00042292      0.00002600      2.85911880    F     -0.23839990     -0.26260306     -1.05437352     -0.18196478     -0.40303568     -1.05774873     -0.18196478     -0.40303568     -1.05774873     -0.18195736     -0.40306003     -1.05775616
Si             33.86417649     70.77316589      9.04529918      14      0.00000000      0.00000000      0.00000000       0     33.86196043     70.77175676      9.04515811       0      -1       0     148      0.00030501      0.00008112     -0.00006084      2.85911880    F     -0.01332724     -0.34126517     -1.12509738     -0.08436169     -0.45559542     -1.16279201     -0.08436169     -0.45559542     -1.16279201     -0.08433621     -0.45561226     -1.16279472
Si              8.47696299     68.90218057      9.10537591      14      0.00000000      0.00000000      0.00000000       0      8.50167899     68.90541590      9.10100522       0      -1       0     104     -0.00931236      0.00132913     -0.00115611      2.85911880    F      0.94525051     -0.92818005     -1.28940382      0.73946676     -1.07937196     -0.99526101      0.73946676     -1.07937196     -0.99526101      0.74096558     -1.07887464     -0.99526453
Si             56.39610928     69.69859660      9.10391184      14      0.00000000      0.00000000      0.00000000       0     56.39617125     69.69396368      9.10393134       0      -1       0     158      0.00081529     -0.00029828     -0.00012548      2.85911880    F      0.60129301     -0.52356659     -0.86664241      0.46989679     -0.64547721     -0.82750996      0.46989679     -0.64547721     -0.82750996      0.46992935     -0.64542653     -0.82751336
Si             58.87521525     68.28740924      9.11489508      14      0.00000000      0.00000000      0.00000000       0     58.87822100     68.28755932      9.11498704       0      -1       0     163     -0.00069724     -0.00500608     -0.00009085      2.85911880    F     -0.07228975     -0.12823072     -0.77648877     -0.17674240     -0.12516239     -0.37934642     -0.17674240     -0.12516238     -0.37934642     -0.17676788     -0.12529265     -0.37933300
Si             41.80648764     68.74257901      9.05566769      14      0.00000000      0.00000000      0.00000000       0     41.80549912     68.74124785      9.05550348       0      -1       0     161      0.00057326      0.00093906      0.00003278      2.85911880    F      0.09101693     -0.30316073     -1.01762772      0.32155254     -0.46340909     -0.89641702      0.32155254     -0.46340909     -0.89641702      0.32155277     -0.46341034     -0.89641187
Si             38.85627864     67.99277832      9.05507070      14      0.00000000      0.00000000      0.00000000       0     38.85502599     67.99053002      9.05497178       0      -1       0     151      0.00070282      0.00069039     -0.00014802      2.85911880    F      0.44149028     -0.22361866     -1.02321424      0.34931740     -0.36492910     -1.02526545      0.34931740     -0.36492910     -1.02526545      0.34931714     -0.36495325     -1.02527391
Si             51.97235145     69.06687113      9.07776287      14      0.00000000      0.00000000      0.00000000       0     51.97223848     69.06236205      9.07746869       0      -1       0     169     -0.00009582      0.00067877     -0.00018281      2.85911880    F     -0.14560244     -0.75172142     -1.05002414     -0.06165360     -0.57768224     -0.91339469     -0.06165360     -0.57768224     -0.91339469     -0.06166400     -0.57768477     -0.91341152
Si             14.33533299     68.27487900      9.08551356      14      0.00000000      0.00000000      0.00000000       0     14.36194353     68.23407111      9.08415905       0      -1       0     151     -0.01146464      0.00189714     -0.00075610      2.85911880    F      0.22213828     -0.35585224     -1.18180913      0.45465819     -0.45812516     -1.04978120      0.45465820     -0.45812516     -1.04978120      0.45449140     -0.45832955     -1.04977743
Si             17.38674619     68.02540138      9.07723096      14      0.00000000      0.00000000      0.00000000       0     17.41010106     68.01020687      9.07648837       0      -1       0     148     -0.01187579      0.00638717     -0.00083406      2.85911880    F      0.37580497     -0.14971868     -1.10691103      0.40720296     -0.33089228     -0.96084140      0.40720296     -0.33089228     -0.96084140      0.40710782     -0.33079193     -0.96076156
Si             46.72115306     68.77584896      9.06458260      14      0.00000000      0.00000000      0.00000000       0     46.72024053     68.77545737      9.06436105       0      -1       0     168      0.00034453      0.00037220      0.00000772      2.85911880    F     -0.11283171     -0.40230512     -0.89568603     -0.12578031     -0.35649120     -0.88434926     -0.12578031     -0.35649120     -0.88434926     -0.12580548     -0.35652998     -0.88434792
Si             23.82677417     67.12365285      9.06835706      14      0.00000000      0.00000000      0.00000000       0     23.82304617     67.11651163      9.06778033       0      -1       0     161     -0.00310332      0.00198268      0.00023365      2.85911880    F     -0.14540303     -0.22628524     -1.06280748     -0.07269754     -0.26500858     -1.10055348     -0.07269754     -0.26500857     -1.10055348     -0.07258997     -0.26520245     -1.10067098
Si             26.87915886     66.93518665      9.06496636      14      0.00000000      0.00000000      0.00000000       0     26.87579246     66.93204047      9.06456385       0      -1       0     159     -0.00260660      0.00074044      0.00035654      2.85911880    F      0.20533719      0.07752568     -1.09167615      0.18519443     -0.17065479     -0.98766372      0.18519443     -0.17065479     -0.98766372      0.18513429     -0.17076141     -0.98772567
Si             44.25173817     67.02842221      9.05933584      14      0.00000000      0.00000000      0.00000000       0     44.25132184     67.02716080      9.05908188       0      -1       0     172      0.00003168      0.00112078      0.00012684      2.85911880    F      0.13081585      0.02741606     -0.96380075      0.02260843     -0.10802095     -0.73665793      0.02260843     -0.10802095     -0.73665793      0.02263926     -0.10804482     -0.73663352
Si             54.47075468     67.32636972      9.08831872      14      0.00000000      0.00000000      0.00000000       0     54.47009410     67.32166862      9.08818888       0      -1       0     182     -0.00056228      0.00068384      0.00001241      2.85911880    F     -0.33058692      0.54545605     -1.08533262     -0.34162839      0.38599175     -0.81044598     -0.34162839      0.38599175     -0.81044598     -0.34162339      0.38595133     -0.81044628
Si              9.60694882     66.04423362      9.10546552      14      0.00000000      0.00000000      0.00000000       0      9.63773123     66.08533052      9.10275499       0      -1       0     122     -0.00658056      0.00439245     -0.00023950      2.85911880    F      0.56606490      0.44587378     -1.14552521      0.65134779      0.09662713     -1.03454619      0.65134779      0.09662713     -1.03454619      0.65126769      0.09680129     -1.03452803
Si             12.60929788     65.74721787      9.09438906      14      0.00000000      0.00000000      0.00000000       0     12.61712201     65.72561680      9.09567406       0      -1       0     155     -0.00655361     -0.00220944     -0.00119443      2.85911880    F      0.48666883     -0.21463238     -1.13750136      0.56865810     -0.18582193     -1.16119441      0.56865810     -0.18582193     -1.16119441      0.56858754     -0.18590328     -1.16116413
Si             58.91177824     65.43873663      9.10736979      14      0.00000000      0.00000000      0.00000000       0     58.91355232     65.44105712      9.10706447       0      -1       0     168     -0.00126210     -0.00552786      0.00025519      2.85911880    F      0.21872747      0.08992766     -0.62092876      0.19946222      0.25836500     -0.73336773      0.19946222      0.25836500     -0.73336773      0.19961932      0.25816775     -0.73348358
Si             31.67742326     65.73316850      9.06394639      14      0.00000000      0.00000000      0.00000000       0     31.67586703     65.73158874      9.06357657       0      -1       0     172     -0.00150853     -0.00007673     -0.00006934      2.85911880    F     -0.21170074     -0.17079692     -1.02803864     -0.16600025     -0.25713554     -0.89806002     -0.16600025     -0.25713554     -0.89806002     -0.16597926     -0.25720051     -0.89806913
Si             18.85886877     65.34845576      9.08451684      14      0.00000000      0.00000000      0.00000000       0     18.87266747     65.33231262      9.08370439       0      -1       0     158     -0.01230677      0.00713550      0.00029432      2.85911880    F     -0.10237270     -0.25388385     -1.03311960     -0.06296699     -0.22326495     -0.97435003     -0.06296699     -0.22326495     -0.97435003     -0.06310177     -0.22317310     -0.97434408
Si             21.87539005     64.79597018      9.08045014      14      0.00000000      0.00000000      0.00000000       0     21.88825360     64.77385492      9.07966222       0      -1       0     159     -0.01330042      0.00876480     -0.00002865      2.85911880    F     -0.15510815     -0.13565530     -0.99615514     -0.23759338     -0.29223315     -0.96149583     -0.23759338     -0.29223315     -0.96149583     -0.23756266     -0.29241571     -0.96146632
Si             28.80893732     64.58436753      9.07138773      14      0.00000000      0.00000000      0.00000000       0     28.80757575     64.58275657      9.07098611       0      -1       0     161     -0.00175491      0.00108596     -0.00005594      2.85911880    F      0.31670130      0.06841656     -1.07978242      0.18859072      0.04154686     -0.89253030      0.18859072      0.04154686     -0.89253030      0.18854524      0.04149933     -0.89259072
Si             38.89713319     64.96827269      9.06166953      14      0.00000000      0.00000000      0.00000000       0     38.89448880     64.96518336      9.06179140       0      -1       0     166      0.00202368      0.00056127     -0.00003859      2.85911880    F      0.07605966     -0.28088094     -1.00550702      0.11332534     -0.35166115     -0.93451575      0.11332534     -0.35166115     -0.93451575      0.11339045     -0.35170410     -0.93447061
Si             57.21075094     62.97394589      9.09021520      14      0.00000000      0.00000000      0.00000000       0     57.20972792     62.97903544      9.08985872       0      -1       0     172     -0.00145716     -0.00631511     -0.00008957      2.85911880    F      0.06356920      0.55636420     -0.84562078     -0.20777169      0.36715892     -1.02032608     -0.20777169      0.36715892     -1.02032608     -0.20799749      0.36681144     -1.02044646
Si             33.63352944     63.45557797      9.06988311      14      0.00000000      0.00000000      0.00000000       0     33.62996272     63.45164906      9.06978738       0      -1       0     149      0.00072986      0.00052933     -0.00044459      2.85911880    F     -0.33366646     -0.27632485     -1.00098736     -0.19534527     -0.14639632     -0.94497708     -0.19534527     -0.14639632     -0.94497708     -0.19522056     -0.14651502     -0.94497064
Si             41.42058283     63.30592286      9.06351928      14      0.00000000      0.00000000      0.00000000       0     41.41998617     63.30509741      9.06367359       0      -1       0     170      0.00141014     -0.00167891     -0.00039420      2.85911880    F     -0.10284664     -0.36423281     -0.95931292     -0.11011447     -0.27608333     -0.89435590     -0.11011447     -0.27608333     -0.89435590     -0.11017687     -0.27614365     -0.89426447
Si             44.37766963     64.01525122      9.06532792      14      0.00000000      0.00000000      0.00000000       0     44.37801896     64.01370865      9.06494177       0      -1       0     153      0.00045417      0.00116108     -0.00014274      2.85911880    F     -0.20634025      0.33332320     -0.93324631     -0.07652024      0.28039395     -0.89389477     -0.07652024      0.28039395     -0.89389477     -0.07657383      0.28039126     -0.89384871