8770
energy=-167682.60655586 strain=0.10000000 n_efield_old=3 cutoff=10.58354498 nneightol=1.20000000 pbc="T T T" Lattice="265.39576501       0.00000000       0.00000000       0.00000000      98.00293199       0.00000000       0.00000000       0.00000000      24.28372928" Properties=species:S:1:pos:R:3:Z:I:1:momenta:R:3:map_shift:I:3:n_neighb:I:1:force:R:3:charge:R:1:fixdip:L:1:efield:R:3:dipoles:R:3:efield_old1:R:3:efield_old2:R:3:efield_old3:R:3
Si              5.00086227     11.20616971      5.53120599      14     -0.00000000     -1.33671450     -0.00000000       0       0       0      73      4.20915229     -0.39001421      0.88883043      2.85911880    F      3.74444986      1.73731059      1.72535210      0.00000000      0.00000000      0.00000000     -0.22331208     -0.18093031      0.48860129     -0.22331208     -0.18093031      0.48860129     -0.23255052     -0.13963211      0.47742844
O               6.30231593     10.39170426      5.10405492       8      0.00000000      0.45290948      0.00000000       0       0       0      81     -2.70260301      0.45032701      0.26890048     -1.42955940    F      0.61355177     -0.77240337     -4.41724201      0.16478094     -0.06157777     -0.16419750     -0.14285561     -0.12706735      0.16874285     -0.14285561     -0.12706735      0.16874285     -0.14535610     -0.12031914      0.16151701
O               5.00723728     12.69724217      5.08112591       8     -0.00000000     -0.14869055     -0.00000000       0       0       0      82     -1.92407909      0.12505443     -0.20225257     -1.42955940    F      1.02696291      0.21203147     -5.21129211      0.18381985      0.01077437     -0.20720742     -0.24140365      0.02848181      0.13660002     -0.24140365      0.02848181      0.13660002     -0.23795674      0.03155050      0.13669420
O               5.00000000     11.17504683      7.14186463       8      0.00000000      0.77328537      0.00000000       0       0       0      75     -2.28731300     -0.35330677      0.06196885     -1.42955940    F      1.11678735     -0.52962246      0.07831498      0.22805046      0.01782452      0.00159063     -0.00299331      0.06777118     -0.00999337     -0.00299331      0.06777118     -0.00999337     -0.00091395      0.06493214     -0.00760247
Si              5.00086227     11.28638626      8.75252328      14     -0.00000000     -0.07412594     -0.00000000       0       0       0      72      3.57992098     -0.25249596     -1.13137191      2.85911880    F      3.95729427      1.55615565     -1.59595812      0.00000000      0.00000000      0.00000000     -0.27448541     -0.18120128     -0.50393853     -0.27448541     -0.18120128     -0.50393853     -0.26885271     -0.13747656     -0.48884498
O               6.30231593     10.52454912      9.17967435       8      0.00000000      0.30918007      0.00000000       0       0       0      83     -1.49670111     -0.37461247     -0.17525779     -1.42955940    F      1.34954215     -0.69718355      4.50112077      0.16329045     -0.03227826      0.16652212     -0.16606571     -0.14796080     -0.18342047     -0.16606571     -0.14796080     -0.18342047     -0.16334067     -0.14484435     -0.17800914
O               5.00723728     12.77430103      9.20260336       8     -0.00000000     -1.27885874     -0.00000000       0       0       0      82     -2.07514802     -0.51465025      0.39752451     -1.42955940    F      1.07852752     -0.04999253      5.37464193      0.19417250      0.01362440      0.21017088     -0.27013689      0.03227538     -0.13697326     -0.27013689      0.03227538     -0.13697326     -0.27091518      0.03082597     -0.13518307
Si             10.34858513      5.46202412      5.67546638      14      0.53871286      0.74783870     -0.08535569       0       0       0      76      0.41757229     -0.25423835     -0.93974356      2.85911880    F      0.77427662      2.57185004      1.79864545      0.00000000      0.00000000      0.00000000      0.69815169      1.48110227      0.61659588      0.69815169      1.48110227      0.61659588      0.70535470      1.49291596      0.61356838
Si              7.66218606      6.72265205      5.52590560      14      0.00000000      0.54598821      0.00000000       0       0       0      69      2.09520083     -2.09220125      1.91475573      2.85911880    F      3.01525316      4.09079769      1.29932405      0.00000000      0.00000000      0.00000000     -0.27801861      1.73286100      0.45115369     -0.27801861      1.73286100      0.45115369     -0.26416602      1.72929669      0.45994991
Si              7.66462340      9.69632118      5.53251478      14      0.00000000      0.35543762      0.00000000       0       0       0      85      2.21896825      1.29200084     -0.01348709      2.85911880    F      1.24627542      0.84226010      1.61111489      0.00000000      0.00000000      0.00000000      0.45797224      0.70828212      1.49153469      0.45797224      0.70828212      1.49153469      0.45830355      0.72086083      1.48557814
Si             10.39506139     11.23844751      5.48825399      14      0.97316571     -1.92287392      0.49143416       0       0       0     116     -1.79495866     -1.62322563      0.99718638      2.85911880    F      0.92549775      0.81098249      1.40461921      0.00000000      0.00000000      0.00000000      1.39039409      1.25632499      0.58824912      1.39039409      1.25632499      0.58824912      1.40774206      1.26098945      0.60183119
O               8.94355459      5.86875630      5.11009363       8      0.00000000      0.77335183      0.00000000       0       0       0      75     -0.30111003      0.08271765      0.04921787     -1.42955940    F     -1.23788570     -1.93143500     -5.49303998     -0.04841795     -0.05769234     -0.23167439      0.08533022      0.14760879      0.03508759      0.08533022      0.14760879      0.03508759      0.08537935      0.15112793      0.03619030
O              11.75990252      6.03776346      5.44815371       8     -0.74623667     -0.37981231     -0.79693806       0       0       0      86     -0.70751480      0.18825953     -0.23188254     -1.42955940    F      2.92422792     -0.22628274     -1.21538140      0.24555836      0.01628874      0.03998260     -0.15824391      0.15697823      0.63225493     -0.15824391      0.15697823      0.63225493     -0.16912702      0.15755564      0.63807779
O               7.66808511      8.14969609      5.08243827       8     -0.00000000     -0.25323494     -0.00000000       0       0       0      77     -1.20086123      1.60718093     -0.67206086     -1.42955940    F      0.59829424      3.29220820     -5.25243374      0.10306704      0.21019515     -0.18777076     -0.06914214     -0.11659384      0.25417250     -0.06914214     -0.11659384      0.25417250     -0.06489506     -0.12387651      0.25294852
O              11.70871443     10.50651858      5.05822243       8     -1.43797388     -0.33920154      0.49710262       0       0       0     124      1.89291680     -0.61393904     -0.09780530     -1.42955940    F      0.61385906     -1.71528082     -4.24011045     -0.03370148     -0.09969251     -0.13115284      0.18957759      0.32361868      0.25540844      0.18957759      0.32361868      0.25540844      0.18404315      0.32355567      0.26339364
O               9.02223119     10.35910925      5.10272869       8     -0.00000000     -0.24640936     -0.00000000       0       0       0     104      0.23420826      0.33027642     -0.23831452     -1.42955940    F      2.32707659      0.22191766     -3.58425037      0.11372807     -0.00581379     -0.08450112      0.19845029      0.21127542      0.06515870      0.19845029      0.21127542      0.06515870      0.20401839      0.21301870      0.05885237
O              10.15448687     12.75635541      5.29658631       8      0.02299316      0.03877288      0.78099235       0       0       0     126      0.52414196      1.21745989     -0.69286470     -1.42955940    F     -3.06849028      1.13967806     -1.56520978     -0.21289754      0.02935678      0.03657945      0.24475399      0.01600135      0.47885525      0.24475399      0.01600135      0.47885525      0.24469418      0.01581559      0.48430582
O              10.16369510      4.96188935      7.15734012       8      0.39689425      0.30751419     -0.00264498       0       0       0      71     -0.25272494      0.05513757      0.04893322     -1.42955940    F     -2.12952168     -5.61108486     -0.09509615     -0.13947551     -0.22323575     -0.01120212     -0.07954525      0.35901747     -0.01234186     -0.07954525      0.35901747     -0.01234186     -0.07788855      0.36281392     -0.01044256
O               7.65940928      6.55954257      7.14186463       8     -0.00000000     -0.06895589     -0.00000000       0       0       0      68     -1.54881056      0.05700806      0.34548835     -1.42955940    F      0.74496237     -1.67761513      0.13671735      0.18321724     -0.05242350     -0.00646840      0.28072936      0.18436068     -0.01737790      0.28072936      0.18436068     -0.01737790      0.28078386      0.18534426     -0.02152979
O               7.66580477      9.63099806      7.14186463       8     -0.00000000     -0.52384342     -0.00000000       0       0       0      88     -1.20633165     -0.24585472      0.05637468     -1.42955940    F      0.36451031     -0.98915541      0.15618845      0.05864496     -0.04825902      0.00401403     -0.23298743     -0.24459054      0.04407142     -0.23298743     -0.24459054      0.04407142     -0.23048486     -0.23871501      0.05259692
O              10.30362796     10.96785788      7.09654922       8      0.45175557      0.66652857      1.06159507       0       0       0     117      0.17863583      0.47042421     -0.24776032     -1.42955940    F     -1.01330334     -2.98347853     -0.71774523     -0.07826349     -0.19872409     -0.03850778      0.26661573      0.18774219      0.05425181      0.26661573      0.18774219      0.05425181      0.27488480      0.18302817      0.05669441
Si             10.32127367      5.46951165      8.63811767      14      0.46950858      1.03080901     -0.08287421       0       0       0      76     -1.09080618     -0.70985364      0.58614533      2.85911880    F      1.11044958      2.80036446     -2.01516399      0.00000000      0.00000000      0.00000000      0.78240432      1.17006551     -1.00678477      0.78240432      1.17006551     -1.00678477      0.76907753      1.16845757     -1.00994484
Si              7.66218606      6.79798766      8.75782366      14      0.00000000      0.04323035      0.00000000       0       0       0      70      1.65711143      1.05195721     -1.51682576      2.85911880    F      3.22325545      3.20644110     -1.44049677      0.00000000      0.00000000      0.00000000     -0.35137167      1.47854027     -0.51135884     -0.35137167      1.47854027     -0.51135884     -0.38314855      1.48872553     -0.51524514
Si              7.66462340      9.79535305      8.75121448      14      0.00000000      0.08501743      0.00000000       0       0       0      87      2.60109089      2.17216518      0.04093479      2.85911880    F      1.22316127      0.44486716     -1.61617806      0.00000000      0.00000000      0.00000000      0.60079469      0.81694071     -1.60163942      0.60079469      0.81694071     -1.60163942      0.61756594      0.77091500     -1.57469237
Si             10.38959142     11.24468270      8.66916681      14     -0.97251280      0.40666942      0.40263168       0       0       0     116     -0.88965155      0.74585683      0.95601461      2.85911880    F      0.30151669      0.33633607     -1.63675239      0.00000000      0.00000000      0.00000000      1.11695407      1.12664597     -1.63657494      1.11695407      1.12664597     -1.63657494      1.13020069      1.10490869     -1.65890843
O               8.94355460      5.99286325      9.17363564       8     -0.00000000     -0.41646859     -0.00000000       0       0       0      76      0.07809185     -0.52170291      0.25851946     -1.42955940    F     -0.49953260     -1.16622181      5.41975645     -0.01458488      0.00517084      0.21545240      0.05055914      0.13985030     -0.08310236      0.05055914      0.13985030     -0.08310236      0.05579962      0.13470563     -0.08552362
O              11.68213651      6.06153282      8.91907310       8     -1.00502345      0.16667514     -0.20416442       0       0       0      87      0.41668952      0.35857441      0.13086228     -1.42955940    F      2.50111347      0.32163754      2.85754792      0.18567632      0.04964926      0.07038194     -0.17603351      0.19602474     -0.56743131     -0.17603351      0.19602474     -0.56743131     -0.17047487      0.19533782     -0.57243486
O               7.66808511      8.28458938      9.20129099       8      0.00000000      1.72841588      0.00000000       0       0       0      79     -1.25170822     -2.27025711      0.15341690     -1.42955940    F      0.58948395      1.75211207      4.97176081      0.10097493      0.23134140      0.17771787     -0.08303227     -0.06265417     -0.27011986     -0.08303227     -0.06265417     -0.27011986     -0.08466644     -0.05341875     -0.27263768
O              11.69932096     10.46868323      9.13794548       8     -0.25934870     -0.21090173     -0.42835258       0       0       0     124     -0.27864314      0.53456030      0.27403632     -1.42955940    F     -0.95150682     -0.96302254      4.57422128     -0.05471877     -0.09547184      0.14384995      0.15807091      0.35590647     -0.35207782      0.15807091      0.35590647     -0.35207782      0.15796787      0.35323420     -0.36539338
O               9.02223119     10.51596587      9.18100058       8      0.00000000      0.20598229      0.00000000       0       0       0     104     -1.26367366     -0.83148385     -0.38512124     -1.42955940    F      1.21303544      0.74558355      4.38098110      0.10620957      0.06799104      0.15152420      0.23868490      0.26374202     -0.21589628      0.23868490      0.26374202     -0.21589628      0.23887234      0.26052564     -0.21485275
O              10.21754407     12.78526322      9.09496852       8     -0.54755613      0.04538358      0.33429352       0       0       0     127      0.54211564     -0.10925999     -0.93446623     -1.42955940    F     -1.47099347      0.29505193      3.92587150     -0.12001835      0.02131527      0.16235547      0.27148741      0.01189899     -0.51672948      0.27148741      0.01189899     -0.51672948      0.27253916      0.01060817     -0.52867984
Si             15.62859643      5.23682159      5.62159662      14     -0.33547301     -0.86585751     -0.88020373       0       0       0      90     -0.42391507      1.00737062     -0.11310552      2.85911880    F      0.46816222      3.31226728      0.66634596      0.00000000      0.00000000      0.00000000      0.07806103      1.82817207      0.20650364      0.07806103      1.82817207      0.20650364      0.05949768      1.79958452      0.20621513
Si             13.14108879      6.87642749      5.51925975      14      2.60074753      1.73696742     -0.81483427       0       0       0     100      0.82646654     -0.98735281      0.28152088      2.85911880    F      0.77043052      2.01106633      1.38309966      0.00000000      0.00000000      0.00000000      0.83585406      2.13015330      1.08285379      0.83585406      2.13015330      1.08285379      0.81518490      2.15420576      1.05578806
Si             13.17435626      9.93014260      5.52140117      14      1.82435983      0.94310519     -0.90591276       0       0       0     129     -2.22930009     -1.05534047      0.12252004      2.85911880    F      0.41478948      0.81998594      1.28741989      0.00000000      0.00000000      0.00000000      1.08348978      0.89778613      1.46321425      1.08348978      0.89778613      1.46321425      1.02483721      0.89823569      1.48721181
Si             15.84642869     11.43293459      5.57882390      14      0.13586306     -0.37714070     -0.83883797       0       0       0     149      0.40437031      0.37430389      0.79454629      2.85911880    F      0.18108224      0.27283316      1.32062624      0.00000000      0.00000000      0.00000000      0.30283585      0.13184445      0.99979250      0.30283585      0.13184445      0.99979250      0.26627476      0.16000404      1.02061909
O              14.27094018      5.80471895      5.01097523       8      0.96839459      0.17490237     -0.82849271       0       0       0      91      1.25397012     -0.36617211      1.02504584     -1.42955940    F     -2.64780560     -1.58936657     -5.73567656     -0.22196010     -0.03402795     -0.26645630      0.30164164      0.04664433      0.08420905      0.30164164      0.04664433      0.08420905      0.30203450      0.03089895      0.07292708
O              17.05649721      5.72358116      5.21121981       8      0.30252768      0.18809095      0.14619416       0       0       0      97     -0.38063051      0.28070343      0.63210713     -1.42955940    F      3.25103112     -1.02530747     -4.03267591      0.23126676     -0.02274624     -0.15839678     -0.40506963      0.14010573      0.37622462     -0.40506963      0.14010573      0.37622462     -0.39447562      0.14071467      0.36855519
O              13.17069775      8.32698296      4.98835486       8      0.04337263      0.44703291     -0.59970269       0       0       0     113      0.18287738      1.46529245      0.35512064     -1.42955940    F      0.05089292      2.80127124     -5.25921798     -0.02172976      0.11095702     -0.20922312      0.20653562      0.26379796      0.14446244      0.20653562      0.26379796      0.14446244      0.19682994      0.26837413      0.13130988
O              17.16387399     10.59331982      5.21447094       8      0.38727910     -0.03842091      0.31894924       0       0       0     144      0.61973060     -0.79500215      0.23187849     -1.42955940    F      0.74202496     -0.27874055     -3.73482432      0.01791492     -0.00248037     -0.12036277      0.09242528      0.12852776      0.31057517      0.09242528      0.12852776      0.31057517      0.09808617      0.13259752      0.30730991
O              14.40193669     10.84290706      5.16675925       8      0.96021804      0.86267273     -0.78141467       0       0       0     146      0.19610928     -0.81839943      0.26610629     -1.42955940    F     -0.12051160      2.75676927     -3.81919620     -0.00327584      0.18963729     -0.13504903     -0.05652963      0.14398397      0.46658197     -0.05652963      0.14398397      0.46658197     -0.05953038      0.15425343      0.47159615
O              15.78913857     12.98007862      5.18736065       8     -0.38406267      0.53450264      1.01295693       0       0       0     163      0.23080282     -1.61167529     -0.06240224     -1.42955940    F      0.11764282     -0.26362564     -3.69049663     -0.01321077      0.04589965     -0.10812766      0.11097167      0.10955866      0.35949745      0.11097167      0.10955866      0.35949745      0.10814620      0.10709116      0.36847646
O              15.57494914      4.79811072      7.17996729       8     -0.88131469     -0.71859273      0.16868075       0       0       0      84      0.08830863      0.34185137     -0.88939180     -1.42955940    F     -0.56903133     -4.43127405     -0.38543996     -0.04767952     -0.15801025      0.00827008      0.05756333      0.45624861     -0.01186233      0.05756333      0.45624861     -0.01186233      0.05468091      0.44850870     -0.00773592
O              13.43961089      6.81617327      7.11821099       8     -0.88278945     -0.40315659      1.38421568       0       0       0     104     -0.71991342     -0.08329286      0.09025412     -1.42955940    F      3.37323426     -0.00426117     -0.00458699      0.18678550      0.00751543     -0.00241423      0.53731109      0.08917330      0.05700813      0.53731109      0.08917330      0.05700813      0.53700873      0.08315276      0.06973229
O              12.95340089      9.62700371      7.13898531       8      0.56717476      2.26262313     -0.86040998       0       0       0     124      0.91113845      0.60455102     -2.36936084     -1.42955940    F     -2.01543916     -2.88046697     -1.11221093     -0.15682473     -0.20467494      0.02308831      0.05002756      0.06365318     -0.04043538      0.05002756      0.06365318     -0.04043538      0.03248004      0.06188761     -0.03380273
O              15.87877068     11.26485609      7.21075833       8      0.04140115     -0.35783891     -0.32490705       0       0       0     147     -0.23381138      0.12990913     -1.27976124     -1.42955940    F      0.90090425     -1.84528982     -0.84108732      0.05966878     -0.11736475     -0.00430672     -0.02850870     -0.13112265      0.01070751     -0.02850870     -0.13112265      0.01070751     -0.02714742     -0.11576371      0.01090707
Si             15.60902272      5.27026880      8.69768799      14     -0.40268297     -1.69806116     -1.08824778       0       0       0      90     -1.39903485      0.68310271      0.09639237      2.85911880    F     -0.39094163      3.52634249     -0.93245066      0.00000000      0.00000000      0.00000000     -0.06244577      1.54357651     -0.35640689     -0.06244577      1.54357651     -0.35640689     -0.08510971      1.53624722     -0.34645172
Si             13.05447848      6.81634871      8.69444742      14     -0.12693540     -0.12475544      0.54639806       0       0       0      97      2.71915418      1.42489893      0.99089214      2.85911880    F      0.65699891      1.86228491     -1.39779641      0.00000000      0.00000000      0.00000000      0.58998926      1.98837056     -1.31616781      0.58998926      1.98837056     -1.31616781      0.60417300      1.98842225     -1.37241500
Si             13.08524286      9.86651190      8.69894033      14      0.67473039      2.41671355      0.66581154       0       0       0     124      1.52214065     -0.56352034      1.78688113      2.85911880    F     -0.16520740      0.31366894     -1.39277748      0.00000000      0.00000000      0.00000000      0.31960183      1.75791665     -1.49319956      0.31960183      1.75791665     -1.49319956      0.28445026      1.72108762     -1.54339739
Si             15.75988954     11.43865830      8.78417683      14      0.17045231     -0.40092473      0.25484707       0       0       0     146      0.78249292     -1.23573672      1.36083638      2.85911880    F     -0.41067992      0.57695438     -1.58296796      0.00000000      0.00000000      0.00000000     -0.29759513      0.60040184     -0.90336618     -0.29759513      0.60040184     -0.90336618     -0.26669823      0.60819615     -0.90350563
O              14.20520340      5.73027678      9.21819074       8     -0.85401843     -0.12308988     -0.33151585       0       0       0      91     -0.17061580      0.30940394     -0.57384831     -1.42955940    F     -3.70659992     -1.71044718      5.19460739     -0.22974556     -0.06095189      0.21807234      0.16761977     -0.01103516     -0.16738727      0.16761977     -0.01103516     -0.16738727      0.16144918     -0.01195182     -0.17595678
O              16.89624127      5.97774750      9.15622954       8      0.84010721      0.71200953     -0.39169437       0       0       0      99      0.66530039     -0.19078365     -0.26528026     -1.42955940    F      1.57252209      0.93522649      4.52939608      0.09931084      0.10947829      0.18186200     -0.25220234      0.11581832     -0.45192403     -0.25220234      0.11581832     -0.45192403     -0.25115205      0.11347862     -0.44314769
O              13.14326058      8.32014719      9.22759323       8     -0.39674842      0.61891951     -0.09768536       0       0       0     113     -0.49433073     -1.91472485     -0.68784513     -1.42955940    F      0.94092098      1.45684479      5.13355135      0.06754827      0.16003709      0.20441538      0.08967063      0.12906388     -0.17050260      0.08967063      0.12906388     -0.17050260      0.08796755      0.12927521     -0.17021029
O              17.17426732     10.75223297      9.37268596       8     -0.89724839     -0.70061017     -0.65858556       0       0       0     144     -2.87021374      1.37104898     -0.55817210     -1.42955940    F     -1.38699147      2.68318097      4.96451944      0.01412284      0.09036628      0.20114798      0.06327393      0.32089181     -0.27041170      0.06327393      0.32089181     -0.27041170      0.06750364      0.32608458     -0.26668330
O              14.50950555     10.46521169      9.17115138       8      0.57183419     -0.77490323      0.34670401       0       0       0     140     -0.61175105      0.59251608     -0.84222263     -1.42955940    F      1.47158521     -1.92420397      3.99263390      0.10963600     -0.14445942      0.15645114      0.07093249      0.24189805     -0.46429803      0.07093249      0.24189805     -0.46429803      0.06580099      0.24038149     -0.46722239
O              15.58172014     12.97297216      9.09821399       8      0.17433849      0.09419472     -0.15501034       0       0       0     162     -0.01072020     -1.02701930      0.67494220     -1.42955940    F     -1.38011868      0.32302271      2.58957693     -0.07633403      0.06911730      0.01953831     -0.17527193     -0.01557315     -0.47305420     -0.17527193     -0.01557315     -0.47305420     -0.16340011     -0.00906581     -0.48998723
Si             21.04207772      5.40850788      5.66225739      14      1.12726537     -0.34236490      0.59455629       0       0       0      95     -1.28414128     -0.15654414      0.03383718      2.85911880    F      0.30935085      3.12826145      0.14425797      0.00000000      0.00000000      0.00000000      0.19455420      1.78888495      0.00200704      0.19455420      1.78888495      0.00200704      0.13255796      1.78985734      0.03686614
Si             18.35552401      6.67037519      5.61043278      14      0.09571523     -0.16719278      1.21578403       0       0       0     100     -1.28068564     -1.69251210     -1.01748087      2.85911880    F      0.29917732      2.29040981      1.68471088      0.00000000      0.00000000      0.00000000      0.12622275      2.36841463      1.38032410      0.12622275      2.36841463      1.38032410      0.14296984      2.32516280      1.35914643
Si             18.47625417      9.72928380      5.69480601      14     -0.57297999     -0.14621855      1.30780275       0       0       0     133     -2.92486945     -0.28422949      0.06014097      2.85911880    F      1.09657664      0.92956361      0.84672734      0.00000000      0.00000000      0.00000000      0.72151201      1.10597253      1.32362230      0.72151201      1.10597253      1.32362230      0.76457654      1.15840548      1.29550645
Si             21.02744265     11.18367399      5.65287186      14      0.72850596     -0.32586047     -0.89965737       0       0       0     144      0.11958800      0.45284255     -0.13327471      2.85911880    F      0.24486772      0.34269738      0.98908397      0.00000000      0.00000000      0.00000000     -0.75833725      0.97599209      1.01139942     -0.75833725      0.97599209      1.01139942     -0.74553739      1.02780268      1.03180865
O              19.60839538      5.78405408      5.18202606       8     -1.18706963      1.00032534      0.53139647       0       0       0      99      0.98946729     -0.29022764     -0.09489112     -1.42955940    F     -2.56710785     -2.19043398     -4.94515474     -0.22297644     -0.06776476     -0.18178779      0.37602887      0.14523924      0.27917076      0.37602887      0.14523924      0.27917076      0.36818625      0.14756153      0.28802376
O              22.36533608      5.87463072      5.05949482       8     -0.85360505     -0.61951349      0.26314665       0       0       0      97      0.98177295      0.46486498      0.26882508     -1.42955940    F      3.27368890     -0.61373778     -6.51631732      0.20182238     -0.00106084     -0.29354087     -0.29266526      0.10797550      0.25742809     -0.29266526      0.10797550      0.25742809     -0.29896136      0.11655842      0.26372160
O              18.27012378      8.13859264      5.19753258       8     -0.74704262      0.48999486     -0.21902692       0       0       0     118     -0.03886145      2.38730561      0.23184095     -1.42955940    F     -1.49014879      3.20175559     -4.50850608     -0.07793211      0.11298688     -0.16792530     -0.13598256      0.18326579      0.39899902     -0.13598256      0.18326579      0.39899902     -0.12695681      0.18010179      0.39756236
O              22.40904702     10.48138366      5.34162932       8     -0.65135587      0.61329477     -0.03662907       0       0       0     143      0.79638354     -0.25981397     -0.66117100     -1.42955940    F     -0.09391269      0.06201433     -2.20409129     -0.04404845     -0.00347020      0.00772152      0.09326243      0.33972893      0.44069458      0.09326243      0.33972893      0.44069458      0.09186740      0.35325957      0.44443035
O              19.83598823     10.20350915      5.12954753       8     -0.83435338      0.42934176      0.55026934       0       0       0     136      1.41248216      0.97131061      0.23939597     -1.42955940    F      2.71078290     -2.04175715     -5.84036635      0.11295342     -0.15326056     -0.24333300      0.03426466      0.04912614      0.25489235      0.03426466      0.04912614      0.25489235      0.03159829      0.05499743      0.25407598