8770
energy=-167527.05088670 n_efield_old=3 cutoff=10.58354498 nneightol=1.20000000 pbc="T T T" Lattice="265.39576501       0.00000000       0.00000000       0.00000000      98.00293199       0.00000000       0.00000000       0.00000000      24.28372928" Properties=species:S:1:pos:R:3:Z:I:1:momenta:R:3:map_shift:I:3:n_neighb:I:1:force:R:3:charge:R:1:fixdip:L:1:efield:R:3:dipoles:R:3:efield_old1:R:3:efield_old2:R:3:efield_old3:R:3
Si              5.00086227     11.48850521      5.53120599      14     -0.00000000     -0.58000142     -0.00000000       0       0       0      73      4.07572337     -1.26997564      1.05947198      2.85911880    F      3.70488871      1.94100112      1.69039133      0.00000000      0.00000000      0.00000000     -0.27162756     -0.30071632      0.61728261     -0.27162756     -0.30071632      0.61728261     -0.27548191     -0.28686470      0.62178887
O               6.30231593     10.67863181      5.10405492       8      0.00000000      0.67547906      0.00000000       0       0       0      82     -2.55801229      0.28227970      0.35999930     -1.42955940    F      0.62894987     -0.75146781     -4.44057190      0.15714186     -0.05298642     -0.16901100     -0.13680973     -0.14136809      0.24083767     -0.13680973     -0.14136809      0.24083767     -0.13688860     -0.13947810      0.24320550
O               5.00723728     12.95640280      5.08112591       8      0.00000000      0.28388893      0.00000000       0       0       0      83     -2.00364623      0.83402021     -0.34445704     -1.42955940    F      1.07160406      0.41803234     -5.49398942      0.19373897     -0.00003186     -0.22298568     -0.25496531      0.02190257      0.20550310     -0.25496531      0.02190257      0.20550310     -0.25498591      0.01958905      0.20364166
O               5.00000000     11.52779065      7.14186463       8     -0.00000000     -0.14249712     -0.00000000       0       0       0      75     -2.21651683     -0.75510226      0.09974246     -1.42955940    F      1.05794259      0.50539960     -0.01929254      0.21456027      0.09158100     -0.00549817     -0.02981790      0.16678472      0.00188539     -0.02981790      0.16678472      0.00188539     -0.02901991      0.16709806      0.00145749
Si              5.00086227     11.53447331      8.75252328      14     -0.00000000     -0.07166723     -0.00000000       0       0       0      74      4.10200508      1.02198130     -0.40348955      2.85911880    F      3.92530967      1.38170030     -1.77822493      0.00000000      0.00000000      0.00000000     -0.18633922     -0.36185174     -0.52973290     -0.18633922     -0.36185174     -0.52973290     -0.19264824     -0.35570710     -0.52808243
O               6.30231593     10.74361671      9.17967435       8      0.00000000      0.36811704      0.00000000       0       0       0      83     -1.93658785     -0.14837852     -0.49552763     -1.42955940    F      1.34764053     -0.69230603      4.35855824      0.17559265     -0.03454885      0.16842409     -0.14309660     -0.14052289     -0.23463532     -0.14309660     -0.14052289     -0.23463532     -0.14080781     -0.13890498     -0.23575685
O               5.00723728     13.06370980      9.20260336       8      0.00000000      0.36398166      0.00000000       0       0       0      83     -2.06030567     -1.55124016     -0.31493800     -1.42955940    F      1.05520933     -0.50234908      5.08267730      0.19199270      0.02445620      0.21648632     -0.28852539      0.01650254     -0.22136422     -0.28852539      0.01650254     -0.22136422     -0.28796377      0.01847382     -0.21921832
Si             10.34385713      5.49460711      5.60773081      14     -0.24393297      0.21634148      0.39431454       0       0       0      75      1.31768077      0.62258930     -0.95155428      2.85911880    F      0.70179202      3.07841435      1.15333612      0.00000000      0.00000000      0.00000000      1.06277205      1.11765699      0.15122198      1.06277205      1.11765699      0.15122198      1.09517057      1.12627068      0.16562326
Si              7.66218606      6.91831573      5.52590560      14     -0.00000000     -0.53940545     -0.00000000       0       0       0      69      3.66881632     -0.36559893      1.01848120      2.85911880    F      2.59404226      3.56833617      1.69004113      0.00000000      0.00000000      0.00000000     -0.21062644      1.58896197      0.34088596     -0.21062644      1.58896197      0.34088596     -0.20786204      1.56777155      0.32379813
Si              7.66462340      9.98084646      5.53251478      14      0.00000000      0.38039439      0.00000000       0       0       0      86      2.69454399      0.31978619     -0.20116303      2.85911880    F      1.03497791      0.92962442      1.80181308      0.00000000      0.00000000      0.00000000      0.59237270      0.79825439      1.57587944      0.59237270      0.79825439      1.57587944      0.61444091      0.81574580      1.58394994
Si             10.32956748     11.51107083      5.49951222      14      0.61343940      0.60873711     -0.33306279       0       0       0     118      1.83838453     -0.07730821      0.25022770      2.85911880    F      0.17979580      0.44975465      1.39119576      0.00000000      0.00000000      0.00000000      0.62763394      1.12564115      0.85601348      0.62763394      1.12564115      0.85601348      0.62386263      1.10652189      0.88633311
O               8.94355459      5.92869460      5.11009363       8     -0.00000000     -0.29813428     -0.00000000       0       0       0      74     -2.76489387      1.61248724      0.09628146     -1.42955940    F     -2.74853789     -1.58752925     -4.78725651     -0.04356270     -0.09992865     -0.19417167      0.03122264      0.07485402     -0.03568345      0.03122264      0.07485402     -0.03568345      0.03617366      0.07511581     -0.03659152
O              11.73864508      5.95936217      5.08555927       8      0.27003968      0.18780803      0.14451796       0       0       0      82     -1.72478456     -0.71508566     -0.27835446     -1.42955940    F      2.48875144     -1.85359366     -4.75456674      0.23591366     -0.03840664     -0.16415615     -0.09978089      0.07581691      0.23354416     -0.09978089      0.07581691      0.23354416     -0.10819825      0.07274156      0.23350219
O               7.66808511      8.40252409      5.08243827       8     -0.00000000     -0.19983028     -0.00000000       0       0       0      79     -0.97438516     -0.66031066      0.37176201     -1.42955940    F      0.46037712      2.73732431     -4.66456659      0.07582123      0.22682982     -0.18671144     -0.06572144     -0.11000150      0.24902335     -0.06572144     -0.11000150      0.24902335     -0.05959635     -0.10778216      0.24157667
O              11.65168938     10.67289053      5.05716658       8      0.35702165     -0.52199080      0.48189612       0       0       0     122     -1.56454665      0.78510675     -0.51224154     -1.42955940    F     -1.30649710     -0.57115452     -4.15456425     -0.02604990     -0.07911787     -0.11068877      0.09353765      0.18629623      0.11425683      0.09353765      0.18629623      0.11425683      0.09648037      0.18023440      0.11081703
O               9.02223119     10.69425278      5.10272869       8     -0.00000000     -1.18887473     -0.00000000       0       0       0     104     -2.06932677     -0.91676437     -0.10534016     -1.42955940    F      0.90852049     -0.28484036     -3.99920626      0.11928804      0.01022829     -0.11637819      0.20516079      0.24666399      0.24066441      0.20516079      0.24666399      0.24066441      0.19995244      0.24945932      0.24894349
O              10.21823049     13.05741941      5.14231253       8     -0.30245287     -0.22954689     -0.40885062       0       0       0     129     -0.12006459     -1.97582311     -0.49509230     -1.42955940    F     -1.39485766     -0.22071344     -3.45263850     -0.09192001      0.06404972     -0.07645467      0.10292431     -0.03164523      0.37301774      0.10292431     -0.03164523      0.37301774      0.09865156     -0.03309517      0.38203620
O              10.24041119      5.36131036      7.15798475       8      1.14533852      0.52629155     -0.50434737       0       0       0      71      0.01739207     -0.66606292      0.67135449     -1.42955940    F     -1.41197476     -1.46270699      0.34093597     -0.10250630      0.03206192     -0.00797979      0.06194731      0.34157099      0.03663114      0.06194731      0.34157099      0.03663114      0.05655534      0.34203621      0.03704440
O               7.65940928      6.74277012      7.14186463       8     -0.00000000     -0.94092964     -0.00000000       0       0       0      70     -1.60139849     -0.04616099     -0.24052825     -1.42955940    F      0.84679691     -1.49492677      0.07840554      0.19572886     -0.04586294      0.01304294      0.15787328      0.19722250     -0.02759759      0.15787328      0.19722250     -0.02759759      0.15606030      0.19992512     -0.02791302
O               7.66580477      9.89934759      7.14186463       8      0.00000000      1.22499500      0.00000000       0       0       0      88     -1.27854108     -0.33677390     -0.17631600     -1.42955940    F      0.32983879     -0.75570739      0.08047550      0.05141574     -0.03391359      0.01067728     -0.18256158     -0.12655200      0.03182327     -0.18256158     -0.12655200      0.03182327     -0.17744774     -0.12239833      0.03198882
O              10.37672317     11.35045164      7.10821109       8     -0.27448987      0.17898885     -0.18170055       0       0       0     117     -0.61223988      0.23388671     -0.38551865     -1.42955940    F      0.71235076     -1.87665930     -0.29774551      0.05469818     -0.13746519     -0.00361452      0.14229560      0.20298844     -0.00869482      0.14229560      0.20298844     -0.00869482      0.13855850      0.19955285     -0.00718013
Si             10.35472169      5.57912779      8.71677822      14     -0.02181827     -1.92220635     -0.64711152       0       0       0      75     -0.87684496      0.40423269      0.28502257      2.85911880    F      1.96298651      2.98315840     -1.09075497      0.00000000      0.00000000      0.00000000      1.72244542      0.84187211     -0.34978406      1.72244542      0.84187211     -0.34978406      1.75616095      0.87530629     -0.35013445
Si              7.66218606      6.92604213      8.75782366      14      0.00000000      1.06783049      0.00000000       0       0       0      67      2.05754892      2.17053966     -1.17104279      2.85911880    F      3.26606426      3.01946853     -1.49452950      0.00000000      0.00000000      0.00000000     -0.45882891      1.29264926     -0.38620440     -0.45882891      1.29264926     -0.38620440     -0.44013596      1.27699739     -0.37047472
Si              7.66462340      9.98936372      8.75121448      14      0.00000000      0.95888764      0.00000000       0       0       0      85      2.18431935      0.86623120      0.56251416      2.85911880    F      1.42470139      0.76187810     -1.63313568      0.00000000      0.00000000      0.00000000      0.62819091      0.80658328     -1.48919987      0.62819091      0.80658328     -1.48919987      0.63823710      0.82421202     -1.49126016
Si             10.31722018     11.51435871      8.69777212      14      0.20679888      0.35771437      0.88794085       0       0       0     118      2.03953898     -3.65553101      0.24682367      2.85911880    F     -0.05058977      1.01251687     -1.41168626      0.00000000      0.00000000      0.00000000      0.89505957      1.21855161     -1.17898749      0.89505957      1.21855161     -1.17898749      0.87792960      1.22560092     -1.20508990
O               8.94355460      6.12243395      9.17363564       8      0.00000000      0.70247107      0.00000000       0       0       0      75      0.00020003     -0.76569867      0.22962435     -1.42955940    F     -0.30249635     -1.13679760      4.82741343      0.00277648      0.01227320      0.18005848      0.04836329      0.02593001     -0.01508349      0.04836329      0.02593001     -0.01508349      0.04911480      0.03120635     -0.01140601
O              11.70985308      6.02759259      9.24904281       8     -0.11262061      0.55123817      0.35998597       0       0       0      82      0.44330207      0.11466361     -0.39419492     -1.42955940    F      3.72919531     -0.51922876      6.44671183      0.24390442      0.01395551      0.29632063     -0.10562911      0.06096046     -0.24363840     -0.10562911      0.06096046     -0.24363840     -0.10408228      0.07152885     -0.24683206
O               7.66808511      8.43332015      9.20129099       8      0.00000000      0.20650697      0.00000000       0       0       0      79     -1.35558497     -1.58388606     -0.60639540     -1.42955940    F      0.59687259      1.95668139      4.63725279      0.10364003      0.20672907      0.18751064     -0.15182785     -0.06015934     -0.26270125     -0.15182785     -0.06015934     -0.26270125     -0.14517102     -0.06152793     -0.25454622
O              11.56163081     10.50871127      9.18649138       8      0.31374411     -0.55440436     -0.17088515       0       0       0     120     -0.54117917      1.14984746     -0.36244021     -1.42955940    F     -2.16615980     -1.49872376      4.16118395     -0.11256276     -0.14217626      0.13984489      0.16292892      0.21635786     -0.08024207      0.16292892      0.21635786     -0.08024207      0.16252692      0.21904564     -0.07878549
O               9.02223119     10.68976521      9.18100058       8     -0.00000000     -0.28709136     -0.00000000       0       0       0     104     -1.82907668     -0.56280298     -0.33962270     -1.42955940    F      1.51592125     -0.17253060      4.50028439      0.15146479      0.00239251      0.16055907      0.14225012      0.23352392     -0.26461651      0.14225012      0.23352392     -0.26461651      0.14130406      0.23439769     -0.27285610
O              10.19149048     12.98295378      9.06317546       8     -0.32734365     -0.56041414     -0.19229218       0       0       0     127      0.44888449      4.04149580      0.33694652     -1.42955940    F     -2.07303456      2.61519313      3.40223042     -0.16064598      0.01577958      0.08645516      0.18392914      0.10365432     -0.45549309      0.18392914      0.10365432     -0.45549309      0.18221642      0.10382075     -0.46136789
Si             15.67112461      5.51010578      5.55137258      14      0.37100503      0.55444214     -1.95265230       0       0       0      93      1.37676295      0.25584389      0.28248357      2.85911880    F      0.02272047      3.13178350      0.97433377      0.00000000      0.00000000      0.00000000      0.03651560      1.64706275      0.24865242      0.03651560      1.64706275      0.24865242      0.06717178      1.64894365      0.26271196
Si             12.97774273      6.89000141      5.44315802      14     -1.04054197      0.03538314      1.38559548       0       0       0      93      1.63583779      0.95245585      0.20030052      2.85911880    F      0.00422345      1.95493200      1.55935283      0.00000000      0.00000000      0.00000000     -0.06480515      2.03414587      1.31924954     -0.06480515      2.03414587      1.31924954     -0.03038851      2.04949881      1.31373940
Si             13.01282160     10.02999574      5.49274891      14     -1.47740299      0.36104652     -1.49719087       0       0       0     122     -1.39488567     -1.82806949      0.83760964      2.85911880    F      0.30501340      1.17088212      1.16034098      0.00000000      0.00000000      0.00000000      0.49923169      0.99317264      1.23305213      0.49923169      0.99317264      1.23305213      0.51204835      0.98484209      1.24768378
Si             15.67748926     11.55208339      5.39830897      14      0.68256602      0.05449396     -0.03050673       0       0       0     142     -3.08518031      0.73601370      1.66063020      2.85911880    F      0.29532714      0.35293524      1.02177935      0.00000000      0.00000000      0.00000000      0.43012663      0.54872102      0.94729610      0.43012663      0.54872102      0.94729610      0.45714615      0.56720310      0.95951490
O              14.35543237      6.10284275      5.02982533       8      0.94915872     -0.00060583      0.49332822       0       0       0      94     -1.04237682      0.17004973      0.16014033     -1.42955940    F     -2.31542554      0.63906938     -5.19124280     -0.13438084      0.07607756     -0.21445518      0.39747810      0.19554176      0.23217857      0.39747810      0.19554176      0.23217857      0.40731220      0.19798085      0.22733507
O              17.11959150      5.96105823      5.16840883       8     -0.18415906      0.26210470     -0.58999798       0       0       0      99     -0.59751674      0.14116434     -0.20639618     -1.42955940    F      3.54862152     -2.33452883     -3.36571075      0.26107036     -0.09114700     -0.08365705     -0.17875006     -0.02934114      0.26546379     -0.17875006     -0.02934114      0.26546379     -0.18772878     -0.03507579      0.26073963
O              13.03105497      8.40864402      5.06797329       8     -0.34677112      0.17181273     -0.12150566       0       0       0     111     -0.34651333     -0.03289299      0.34968310     -1.42955940    F      0.51035748      2.65074032     -3.60182635      0.04015720      0.15508202     -0.11410385      0.05343130      0.16978391      0.38488270      0.05343130      0.16978391      0.38488270      0.05881251      0.17906826      0.39032466
O              17.01275559     10.83477338      5.03040226       8      0.31634658      0.10154020      1.11037073       0       0       0     143      0.26188266     -0.00138768     -0.65636615     -1.42955940    F      0.20616350      0.15877671     -4.40635391     -0.00125726     -0.01219417     -0.12568725      0.03140572      0.31113135      0.32866716      0.03140572      0.31113135      0.32866716      0.02447510      0.32210668      0.32395308
O              14.30983110     10.68561934      5.02079035       8      0.06451825     -0.07080409     -0.24070695       0       0       0     138      3.05720934      1.18312466     -0.16930376     -1.42955940    F      2.23472092      0.41580323     -4.33709328      0.02866788     -0.01908389     -0.14347017      0.12278755      0.08686658      0.34992441      0.12278755      0.08686658      0.34992441      0.12398060      0.08480503      0.35664944
O              15.41391109     13.06154541      4.91645045       8      0.30237083     -1.17443377      0.69360440       0       0       0     159      0.75098732     -0.82232532     -0.03388883     -1.42955940    F     -2.84559793      0.03280790     -4.52751038     -0.18783269      0.03021109     -0.14985999     -0.09828636      0.04030518      0.25353073     -0.09828636      0.04030518      0.25353073     -0.08806596      0.03497912      0.25982664
O              15.61526673      5.00714918      7.06359016       8      1.14257592     -0.30101857      0.23745093       0       0       0      86      0.34992367      0.22874738      0.35287230     -1.42955940    F     -0.96333772     -4.70845805      0.14287098     -0.07913766     -0.17298358     -0.00333813     -0.05673045      0.44012369      0.00293597     -0.05673045      0.44012369      0.00293597     -0.05166850      0.44555789      0.00182488
O              12.92665178      6.70513101      7.06153061       8      0.36266328      0.16534207      1.37811516       0       0       0      95     -0.22053015      0.04746215     -0.37165541     -1.42955940    F     -0.44173694     -1.60608318     -0.73663380     -0.01863896     -0.09227785     -0.02963923     -0.07152034      0.08263298      0.01351238     -0.07152034      0.08263298      0.01351238     -0.06722154      0.09218594      0.02166255
O              12.86212047      9.92021559      7.10157263       8      0.80987074      0.34806521     -0.28253315       0       0       0     124      0.47436387     -0.59499176     -0.48562550     -1.42955940    F     -1.53512811     -0.33382067      0.00821805     -0.11669326     -0.00393794      0.01966352      0.05685197      0.07477264      0.05765735      0.05685197      0.07477264      0.05765735      0.05754666      0.07642965      0.05750400
O              15.63176643     11.51430463      7.07493488       8      0.91867203      0.89274961      0.98160134       0       0       0     146      0.32368098     -0.23319635     -1.72002210     -1.42955940    F     -0.04010521     -0.03188497     -0.71080681     -0.01096299      0.00475053      0.02893268      0.13412993      0.07598914     -0.10839686      0.13412993      0.07598914     -0.10839686      0.13186189      0.07160362     -0.11151788
Si             15.70397903      5.45987514      8.60494060      14     -0.98971845     -1.16969889      1.21698190       0       0       0      91     -1.15461055      0.44962411     -0.61065200      2.85911880    F     -0.15735983      3.78084355     -0.77646845      0.00000000      0.00000000      0.00000000      0.50370148      1.50689545     -0.26014186      0.50370148      1.50689545     -0.26014186      0.56415043      1.51310889     -0.26222891
Si             12.98334256      6.85870388      8.64629321      14     -0.54023929     -0.13906872     -0.04902971       0       0       0      92      1.29277493     -0.97632222      1.06034830      2.85911880    F     -0.00120890      1.93257806     -1.66063679      0.00000000      0.00000000      0.00000000     -0.01667128      1.81173530     -1.74180921     -0.01667128      1.81173530     -1.74180921      0.00903290      1.84211948     -1.74026363
Si             12.97370670      9.91174584      8.71280776      14     -0.85936480      0.76130273      0.85565716       0       0       0     123     -2.29668043      0.26941984     -0.55186089      2.85911880    F      0.15066137      1.02887490     -1.27276944      0.00000000      0.00000000      0.00000000      0.20292116      1.15321984     -0.68994035      0.20292116      1.15321984     -0.68994034      0.24259860      1.17780818     -0.71182469
Si             15.59014367     11.50043422      8.69453083      14     -0.46700272     -0.57749344      0.29290894       0       0       0     143     -0.67864742     -0.89947015     -1.63970800      2.85911880    F      0.27420782      0.50330870     -1.10420634      0.00000000      0.00000000      0.00000000      0.48495797      0.57432527     -0.72971955      0.48495797      0.57432527     -0.72971955      0.51328945      0.59090386     -0.77609258
O              14.28004558      5.91482455      9.02321781       8      0.45738989      0.79062009      0.45902752       0       0       0      93     -0.71344814      0.43801927     -0.03410056     -1.42955940    F     -3.12887025     -1.28165908      3.97034574     -0.18804625     -0.04516420      0.13279164      0.32188106      0.12593526     -0.36457953      0.32188106      0.12593526     -0.36457953      0.31756329      0.13625206     -0.36351279
O              16.95073091      6.19333896      9.11513156       8      1.06257635     -0.40192209      0.42381449       0       0       0     100     -0.10717756     -0.92219113      0.36580569     -1.42955940    F      1.44979464      1.29781753      4.97844041      0.13010681      0.16514707      0.17984060     -0.33269354      0.11943815     -0.31614082     -0.33269354      0.11943815     -0.31614082     -0.31899478      0.11904934     -0.32450096
O              12.98102147      8.33929293      9.08529987       8     -0.08560539     -0.23374657      0.49957779       0       0       0     112      0.17004450      0.12916698      0.09521890     -1.42955940    F     -0.05713620      1.84890711      4.21054809     -0.02054053      0.11548661      0.13444400      0.15464329      0.12434069     -0.39376831      0.15464329      0.12434069     -0.39376831      0.15384322      0.11646504     -0.39727697
O              16.87910756     10.74384343      9.16040376       8      0.16647992     -0.88602139     -0.31976110       0       0       0     143      1.68651135     -0.64101601      0.30153451     -1.42955940    F     -0.26195255     -0.78479858      4.45813009     -0.08246118     -0.03854940      0.13858754      0.11201960      0.19553720     -0.27084277      0.11201960      0.19553720     -0.27084277      0.12012202      0.20561849     -0.27888038
O              14.30180785     10.62857206      9.01598786       8     -0.75935245      0.75766628     -0.52584288       0       0       0     139      1.08746596      0.38708109      1.03694758     -1.42955940    F      1.39658984     -0.26133292      2.91368383      0.05769643     -0.03050799      0.02185449     -0.09236808      0.03046022     -0.35229169     -0.09236808      0.03046022     -0.35229169     -0.08888574      0.02568686     -0.35740178
O              15.46194173     12.98930688      9.07262481       8      0.87266492      0.27410505     -0.27594269       0       0       0     161      0.01536967      1.82179519      1.00587352     -1.42955940    F     -2.06260279      0.98334049      4.28521123     -0.11072615     -0.00969062      0.10600644     -0.06232350      0.12205397     -0.18601223     -0.06232350      0.12205397     -0.18601223     -0.05691661      0.12696205     -0.19657638
Si             20.97431674      5.63592491      5.55196957      14      0.34619027     -0.16842663     -0.61265216       0       0       0      95     -1.41473612     -0.19184144      2.23378103      2.85911880    F      0.74597466      3.35874761      0.93212946      0.00000000      0.00000000      0.00000000      0.41358331      1.34037038      0.37989742      0.41358331      1.34037038      0.37989742      0.43860836      1.34410388      0.34592493
Si             18.29599849      7.04195559      5.49002017      14      0.26461472     -0.33228889      0.99275408       0       0       0     103     -1.30736039     -1.45469891      2.01549229      2.85911880    F     -0.11193615      1.95943247      0.94715839      0.00000000      0.00000000      0.00000000     -0.26067159      2.15652380      1.15552497     -0.26067159      2.15652380      1.15552497     -0.27466381      2.17629633      1.08113058
Si             18.29922643     10.08312806      5.49269445      14      1.22370495     -0.88519081      0.42759909       0       0       0     136      0.18076550     -1.02537660      0.96067066      2.85911880    F      0.03645052      0.77078731      1.23718028      0.00000000      0.00000000      0.00000000      0.35784007      0.71767075      0.98344482      0.35784007      0.71767075      0.98344483      0.33523142      0.74944258      0.96708533
Si             21.02230251     11.52238291      5.51352149      14     -0.10259468     -0.34279284      0.39939089       0       0       0     144      1.67746242      0.34110948      0.17758366      2.85911880    F     -0.10543651      1.00922793      1.05938247      0.00000000      0.00000000      0.00000000     -0.09035910      1.07389040      0.65986041     -0.09035910      1.07389040      0.65986041     -0.05396285      1.07089012      0.63031304
O              19.66565992      6.35401881      5.13409948       8      0.33161267      0.08059921     -0.76700275       0       0       0     103      0.99679988     -0.59865987     -0.39324392     -1.42955940    F     -0.78158984      1.10952154     -4.25069515     -0.11970042      0.12362331     -0.13550879      0.38466134      0.32278533      0.28047923      0.38466134      0.32278533      0.28047923      0.39036443      0.32722946      0.26673475
O              22.38394677      5.97069995      5.09863545       8     -0.22842967     -0.13948699     -1.39519075       0       0       0      98      1.65619783      0.52569535     -0.10577893     -1.42955940    F      3.49233099     -1.45422327     -4.51926118      0.18918385     -0.04854654     -0.16577707     -0.23953321      0.12949759      0.37054178     -0.23953321      0.12949759      0.37054178     -0.23809385      0.13074878      0.37249348
O              18.10368144      8.49234508      5.04163128       8      1.10296885     -0.57115518     -1.39874608       0       0       0     122      0.32316088      1.71715672      0.05529754     -1.42955940    F     -2.32886183      2.77856862     -4.57472744     -0.14008561      0.11049327     -0.16416952     -0.15343883      0.16632642      0.24913960     -0.15343883      0.16632642      0.24913960     -0.15464113      0.16202434      0.24290304
O              22.38668535     10.68347258      5.14937911       8      1.25207606      0.46585972     -0.12301386       0       0       0     142     -0.46903160     -0.22439903      0.28218665     -1.42955940    F     -0.99955921      0.41153081     -3.54970271     -0.04687299      0.01873172     -0.11358123      0.02390596      0.16882843      0.36222977      0.02390596      0.16882843      0.36222977      0.02372006      0.17411683      0.36131517
O              19.71667961     10.69229325      5.16830334       8      1.37436435     -0.33473710     -0.42272165       0       0       0     142     -0.19021100     -0.51066137     -0.42010847     -1.42955940    F      1.01999178     -1.07791894     -3.15797981      0.07043857     -0.05270877     -0.06145022      0.02875591      0.01906414      0.38188520      0.02875591      0.01906414      0.38188520      0.03101675      0.02103744      0.37341658