7841
strain=0.10000000 energy=-149794.36123541 n_efield_old=3 cutoff=10.58354498 nneightol=1.20000000 pbc="T T T" Lattice="263.88811043       0.00000000       0.00000000       0.00000000      82.43324632       0.00000000       0.00000000       0.00000000      19.87617225" Properties=species:S:1:pos:R:3:Z:I:1:momenta:R:3:map_shift:I:3:n_neighb:I:1:force:R:3:charge:R:1:fixdip:L:1:efield:R:3:dipoles:R:3:efield_old1:R:3:efield_old2:R:3:efield_old3:R:3
Si             77.02257801     77.69206869      9.03588695      14      0.71852953     -0.20995052     -0.35798680       0      -1       0      85     -0.20757038      0.17864582     -0.21051607      2.85911880    F     -1.08974169     -4.06255332     -1.15281295      0.00000000      0.00000000      0.00000000      0.46962133     -2.01528842     -0.62551310      0.46962133     -2.01528842     -0.62551310      0.45698971     -1.98341832     -0.59503919
Si             74.02278686     77.99004938      8.95617266      14     -0.63989318      0.06968587      0.05133381       0      -1       0      87     -0.82121369     -1.17794314     -0.20307657      2.85911880    F      0.36348312     -4.17313051     -1.06022584      0.00000000      0.00000000      0.00000000     -0.36899072     -1.42803374     -0.69848461     -0.36899072     -1.42803374     -0.69848461     -0.40299275     -1.42342103     -0.71662086
Si             69.58327882     74.79247824      8.98773892      14     -1.77897185      0.38365394     -0.56341136       0      -1       0     120      1.26931356     -0.99320690     -0.76751416      2.85911880    F      0.49275823     -0.98300611     -1.17403326      0.00000000      0.00000000      0.00000000      0.42982175     -1.14431398     -1.12677530      0.42982175     -1.14431398     -1.12677530      0.44506502     -1.12448348     -1.13011952
Si             22.47767099     77.30808510      9.22474331      14      0.36802262      0.58879243      0.07156527       0      -1       0      85      0.77011020     -0.28514653     -0.03052366      2.85911880    F     -0.46720338     -3.52806883     -1.07934895      0.00000000      0.00000000      0.00000000     -0.46055135     -2.07298507     -0.29631941     -0.46055135     -2.07298507     -0.29631941     -0.49062542     -2.10176641     -0.29059683
Si             67.15705830     76.46481300      8.87897809      14      1.10238078      1.11215085     -1.32160240       0      -1       0     101      1.39065296      0.44745699     -1.34467515      2.85911880    F     -0.46255325     -3.44363157     -0.92146093      0.00000000      0.00000000      0.00000000      0.05930682     -1.48005521     -0.43181772      0.05930682     -1.48005521     -0.43181772      0.08272424     -1.47978609     -0.39620200
Si             72.58299685     75.43353593      8.90343568      14     -0.83119846      0.13183544      0.39129188       0      -1       0     104     -0.92740648     -0.06813396      0.20006418      2.85911880    F      0.19978228     -0.62204864     -1.23394049      0.00000000      0.00000000      0.00000000     -0.34005939     -1.11747842     -1.35687738     -0.34005939     -1.11747842     -1.35687738     -0.31767147     -1.13333296     -1.33936071
Si             84.03218510     75.98661081      8.90969233      14      0.50027830      1.48022385      1.94227915       0      -1       0     102     -0.12003139     -0.20626648      1.72423104      2.85911880    F     -0.66628894     -3.40296475     -0.71567622      0.00000000      0.00000000      0.00000000     -1.00645806     -2.35974425     -0.17437654     -1.00645806     -2.35974425     -0.17437654     -1.02762228     -2.38866523     -0.17434864
Si             87.02514550     76.20482961      9.00688923      14      1.41243830     -0.88857546     -0.08601922       0      -1       0      95      0.45855233     -0.05273163     -0.58172447      2.85911880    F      0.39818297     -3.32343707     -1.01152707      0.00000000      0.00000000      0.00000000      0.78737989     -1.52792955     -0.36224416      0.78737989     -1.52792955     -0.36224416      0.72758002     -1.50506115     -0.36273848
Si             96.85766945     76.51301353      9.22169015      14     -0.67362797     -0.64703997      0.58781865       0      -1       0      91     -0.50962829      0.03013762     -0.82242870      2.85911880    F      0.58934220     -3.93604876     -1.04742508      0.00000000      0.00000000      0.00000000      1.39985477     -1.63381500     -0.31976210      1.39985477     -1.63381500     -0.31976210      1.40754692     -1.61465523     -0.31380938
Si             30.85357875     76.30505031      9.20889402      14      0.51113467      0.89664127      0.15347077       0      -1       0      95     -1.40687263      1.51136385     -0.29057135      2.85911880    F     -0.54800025     -4.46769027     -1.40295152      0.00000000      0.00000000      0.00000000      0.67192764     -2.67418061     -0.09147990      0.67192764     -2.67418061     -0.09147990      0.69863637     -2.69336840     -0.07400868
Si             37.84048194     76.37427306      9.10163209      14     -0.87907987     -1.36213474     -0.09385572       0      -1       0     100      0.07922146      0.54772110     -1.27342703      2.85911880    F      1.18845533     -3.68599447     -0.94263246      0.00000000      0.00000000      0.00000000      0.20767755     -2.40174568      0.11715344      0.20767755     -2.40174568      0.11715344      0.23866398     -2.39466688      0.10571823
Si             40.87612586     76.39220365      9.14202341      14      0.15098694     -0.85059043      0.24497890       0      -1       0      99      0.71704124      0.48759104      1.79325234      2.85911880    F      0.96202042     -2.11497471     -1.61466045      0.00000000      0.00000000      0.00000000      0.84631606     -1.97299519     -1.12809979      0.84631606     -1.97299519     -1.12809979      0.88346929     -1.97824816     -1.13642577
Si             43.03936151     78.23420985      9.23399959      14     -1.18961284     -0.39408428     -0.42285776       0      -1       0      73      0.53636327      2.19855724     -2.74586642      2.85911880    F     -2.26082743     -4.06325290     -0.55049611      0.00000000      0.00000000      0.00000000     -1.36648911     -1.33476298      0.01432705     -1.36648911     -1.33476298      0.01432705     -1.36444676     -1.35564143      0.00982779
Si             45.75924426     76.78043403      9.21002342      14     -0.06475357     -1.03483741      0.74413544       0      -1       0      95     -1.37542003      0.44717189     -0.55176277      2.85911880    F     -0.27585614     -3.87479743     -1.70152638      0.00000000      0.00000000      0.00000000      0.62195891     -1.71431737      0.03636532      0.62195891     -1.71431737      0.03636532      0.59451688     -1.68801010      0.06444546
Si             27.96339903     77.16043566      9.21416798      14      0.09603438      0.76952964     -1.08371894       0      -1       0      94      1.35560141      0.39560046     -0.74922143      2.85911880    F     -1.44423011     -2.55447812     -0.59748113      0.00000000      0.00000000      0.00000000     -1.53061420     -0.77478558     -0.31420682     -1.53061420     -0.77478558     -0.31420682     -1.52136720     -0.77566429     -0.26492520
Si            101.72267403     73.17980432      9.20202448      14     -0.56100421     -0.57261985     -0.86377710       0      -1       0     116     -1.37782176      0.87759888     -1.01540773      2.85911880    F      0.64100095     -0.63046826     -1.10915455      0.00000000      0.00000000      0.00000000      0.33037097     -1.43575035     -0.85541387      0.33037097     -1.43575035     -0.85541387      0.36728316     -1.39090845     -0.85084671
Si             25.28421588     75.91031288      9.38909168      14      0.39663024      1.08225732      0.12130593       0      -1       0     101      0.02949093      0.17710119      0.54830352      2.85911880    F      0.31820143     -2.21151693     -1.48478093      0.00000000      0.00000000      0.00000000     -0.15213649     -1.74120661     -1.28316551     -0.15213649     -1.74120661     -1.28316551     -0.18407774     -1.76913882     -1.30116942
Si             49.91389697     73.94450229      9.11739608      14      0.02014913     -2.85373871      0.40297427       0      -1       0     115      1.82601567     -0.31573349      1.59229572      2.85911880    F     -0.02383805     -0.96686043     -1.46355352      0.00000000      0.00000000      0.00000000     -0.07318126     -1.27061473     -1.66575035     -0.07318126     -1.27061473     -1.66575035     -0.07421036     -1.21528076     -1.66049797
Si             51.87652726     76.14722143      9.02996629      14     -0.31458957     -0.47353617     -1.58774442       0      -1       0      95     -1.06298435     -1.76271551      2.36384752      2.85911880    F     -0.95457604     -3.14877589     -1.22705343      0.00000000      0.00000000      0.00000000     -1.13023598     -1.25042714     -0.43271992     -1.13023598     -1.25042714     -0.43271992     -1.15344285     -1.25086241     -0.43254614
Si             54.88413326     75.70054905      9.08005318      14      0.69108047      0.30714575      0.29878757       0      -1       0      94     -1.24817846      0.72439128      0.58674895      2.85911880    F      1.31015154     -2.62289156     -0.98895139      0.00000000      0.00000000      0.00000000      0.85473816     -1.70498717     -0.21942457      0.85473816     -1.70498717     -0.21942457      0.90425502     -1.71634386     -0.22569472
Si             92.21407900     73.81928557      9.16137395      14     -0.74679194      0.89241967     -0.32627151       0      -1       0     115     -0.61026004     -1.52203091      1.10611016      2.85911880    F      0.16792826     -0.75780509     -2.09708144      0.00000000      0.00000000      0.00000000      0.12071442     -1.83073715     -1.60299535      0.12071442     -1.83073715     -1.60299535      0.12691641     -1.85691538     -1.61151046
Si             93.78231790     76.40275942      9.12915776      14      1.62939127      0.01387994      1.33864369       0      -1       0      90     -0.42680492     -1.19494970     -0.99856095      2.85911880    F      0.43101143     -3.87930447     -1.41353486      0.00000000      0.00000000      0.00000000     -0.61021755     -1.67668297     -0.51171572     -0.61021755     -1.67668297     -0.51171572     -0.58008797     -1.68327994     -0.52211750
Si             34.17118366     72.24515159      9.27389564      14      0.46593334      0.54796121      0.45235881       0      -1       0     139      0.05897556     -1.01761393      0.86066005      2.85911880    F      0.46666700     -0.52945028     -1.05531698      0.00000000      0.00000000      0.00000000     -0.44899405     -1.08704096     -1.06095131     -0.44899405     -1.08704096     -1.06095131     -0.46844813     -1.05799388     -1.04127876
Si             61.64032650     75.26560606      8.92246589      14     -0.18281503      0.62440845     -1.24102265       0      -1       0      98     -0.11010534     -0.41081622      1.02493218      2.85911880    F      0.51516799     -2.86918238      0.02936771      0.00000000      0.00000000      0.00000000      0.01986983     -1.52419419     -0.07530823      0.01986983     -1.52419419     -0.07530823      0.01527167     -1.54157915     -0.04985916
Si             79.68027039     72.82616516      8.94981279      14      1.37876323      0.15109562     -0.65756920       0      -1       0     133      1.04892799     -1.98550769      1.26567617      2.85911880    F     -0.55856074     -0.17688374     -1.86630119      0.00000000      0.00000000      0.00000000     -0.20555823     -1.00363271     -1.35453850     -0.20555823     -1.00363271     -1.35453850     -0.21991392     -1.02330338     -1.34534714
Si             17.31125897     75.07216395      9.25085226      14     -0.09293672     -0.20929857     -0.59811860       0      -1       0     100     -1.30560701      0.36304135      0.13211916      2.85911880    F      0.81442229     -2.42727469     -0.08274123      0.00000000      0.00000000      0.00000000     -0.00159113     -2.15440935      0.33339699     -0.00159113     -2.15440935      0.33339699     -0.00093924     -2.12904614      0.36358693
Si             20.35269618     75.27779313      9.28399146      14     -0.08689233      0.40875303      0.74218307       0      -1       0     105     -0.32611114      1.24572071     -0.34531597      2.85911880    F      0.49805813     -1.99184874     -1.87114596      0.00000000      0.00000000      0.00000000      1.18145998     -1.28686789     -1.17989733      1.18145998     -1.28686788     -1.17989733      1.20171117     -1.27433030     -1.17312488
Si             56.64033247     73.37734366      9.16504240      14      0.68154828     -0.52789662      0.67246954       0      -1       0     116      2.36953608      0.96086330     -0.09111611      2.85911880    F     -0.92910555     -1.79521220     -1.02321017      0.00000000      0.00000000      0.00000000     -0.98275610     -1.96361781     -1.52072457     -0.98275610     -1.96361781     -1.52072457     -0.99600711     -2.00948330     -1.51650386
Si             64.54227101     74.94191166      8.97743967      14      1.22001815      0.90552435     -1.39292785       0      -1       0     108      1.53863065     -0.38703930     -0.28284340      2.85911880    F      0.25467322     -1.88833059     -1.69301956      0.00000000      0.00000000      0.00000000      0.30706944     -1.60283503     -0.94568246      0.30706944     -1.60283503     -0.94568246      0.31378181     -1.58906894     -0.92725593
Si             74.89848716     73.42949362      8.89954335      14     -0.29534541      0.98452255      1.22409589       0      -1       0     127      0.13389846      0.84787322     -0.43340831      2.85911880    F      1.13588559     -0.20031487     -1.41652613      0.00000000      0.00000000      0.00000000      1.06394747     -1.16790676     -0.47489570      1.06394747     -1.16790676     -0.47489570      1.10793709     -1.21554284     -0.50224786
Si             77.53592768     74.89976140      8.97635251      14      0.76653844      0.07287667     -0.46496909       0      -1       0     110     -0.09120860     -2.28246625      1.30776183      2.85911880    F     -1.00947514     -0.98348645     -1.12076991      0.00000000      0.00000000      0.00000000     -0.49462892     -1.86941805     -1.06051641     -0.49462892     -1.86941805     -1.06051641     -0.54020406     -1.93034059     -1.08106540
Si             82.67606296     73.43843654      8.91351150      14      0.38741841     -0.36956549      0.12794355       0      -1       0     119      3.33593220     -0.09937970      0.98399806      2.85911880    F     -0.46098707     -0.86274505     -1.08005227      0.00000000      0.00000000      0.00000000     -0.32302873     -1.73796921     -1.47190165     -0.32302873     -1.73796921     -1.47190165     -0.32743641     -1.73296083     -1.47283503
Si             36.78926958     73.64036958      9.19516386      14     -0.30174684      0.62298027      0.97006247       0      -1       0     128      1.60833107     -1.12213490      1.93211188      2.85911880    F     -0.58270093     -1.60149019     -1.37528157      0.00000000      0.00000000      0.00000000      0.27222013     -1.21639333     -0.91372829      0.27222013     -1.21639334     -0.91372829      0.27970998     -1.21099918     -0.94250816
Si             41.82528439     73.45316371      9.14070910      14      0.45890405      0.02301041     -0.25378707       0      -1       0     122      0.06323130      0.01501056      1.65499678      2.85911880    F     -0.73179232     -1.04457052     -1.51260523      0.00000000      0.00000000      0.00000000     -0.21976821     -1.39451322     -1.40132672     -0.21976821     -1.39451322     -1.40132672     -0.28297418     -1.37797160     -1.37075326
Si             46.92280282     73.97280912      9.14316124      14     -1.26565448     -0.95717317      0.92194889       0      -1       0     122      0.34100010      0.05104108      1.62301051      2.85911880    F     -0.04489855     -1.05000452     -1.78893707      0.00000000      0.00000000      0.00000000      0.65282028     -1.65091243     -1.82405012      0.65282028     -1.65091243     -1.82405012      0.67283809     -1.63079846     -1.80538638
Si             89.10404316     74.00241967      9.04448682      14     -0.26843092      1.39184332      0.63659935       0      -1       0     109     -0.24478486     -0.50158991      1.99023420      2.85911880    F      0.46641908     -1.65729164     -1.98478458      0.00000000      0.00000000      0.00000000      0.69779509     -1.49350416     -1.50739140      0.69779509     -1.49350416     -1.50739140      0.72134310     -1.58324265     -1.50413232
Si             94.06768543     71.29407875      9.11397233      14      0.66356878      1.10671094     -0.29270689       0      -1       0     140      1.20711105     -0.63723688      2.31693855      2.85911880    F      1.06517561     -0.51915187     -1.47188463      0.00000000      0.00000000      0.00000000      0.00814830     -0.85812290     -1.00517104      0.00814830     -0.85812290     -1.00517104      0.01135420     -0.86480233     -0.97441670
Si             65.80610211     72.13802272      8.93213421      14     -0.42395737     -0.67038769     -0.69904200       0      -1       0     131     -2.21818146     -0.41596141      1.67917755      2.85911880    F      0.43432033     -0.95586197     -1.69224222      0.00000000      0.00000000      0.00000000      0.27442670     -0.79236903     -1.30237832      0.27442670     -0.79236903     -1.30237832      0.27965439     -0.78837663     -1.31287830
Si             18.46116199     70.73167264      9.27953749      14     -0.23089547     -0.80478788      1.27359187       0      -1       0     140     -3.16259877     -0.74806232     -0.56120152      2.85911880    F      0.95207764     -0.56951851     -0.73016206      0.00000000      0.00000000      0.00000000      1.21181297     -0.90723133     -0.77980388      1.21181297     -0.90723133     -0.77980388      1.15830549     -0.93480456     -0.78844529
Si             59.77972946     72.97333530      9.21216722      14     -0.79316060      0.83189959     -0.08869578       0      -1       0     128      0.15796491     -0.19041037      0.35509207      2.85911880    F      0.38018086     -0.76932836     -1.42284896      0.00000000      0.00000000      0.00000000     -0.36417526     -1.01636073     -1.15897507     -0.36417526     -1.01636073     -1.15897507     -0.32250021     -1.06343307     -1.14720721
Si             13.08785236     71.62990224      9.19023571      14     -1.20513039      0.44022520     -1.40134967       0      -1       0     101      0.26910042     -0.78808987      1.04158064      2.85911880    F      0.71113853     -1.08147069     -1.36252505      0.00000000      0.00000000      0.00000000      0.99498026     -1.09940957     -1.72285707      0.99498026     -1.09940957     -1.72285707      1.07060683     -1.13054661     -1.67816197
Si             97.24496383     71.40937094      9.22943228      14      0.04795826     -0.83466115     -0.79073798       0      -1       0     141     -2.42459389      0.47998858     -1.64185224      2.85911880    F     -0.33369493     -0.81640487     -1.17638440      0.00000000      0.00000000      0.00000000      0.65066235     -1.09805438     -0.45387849      0.65066235     -1.09805438     -0.45387849      0.65962183     -1.09044175     -0.40897063
Si             10.39545661     72.66724636      9.24896024      14     -0.00000000     -0.18720023     -0.00000000       0      -1       0      80     -0.42951372     -0.22986228     -0.05912085      2.85911880    F      3.26289927     -3.33147411     -1.35582108      0.00000000      0.00000000      0.00000000      2.38103190     -1.00691755     -0.45208155      2.38103190     -1.00691755     -0.45208155      2.34343588     -0.99251659     -0.43587687
Si             15.95892715     72.58808349      9.28529564      14      0.22362493     -0.45126107     -0.51324342       0      -1       0     118     -0.97067112      0.93556113     -0.80677677      2.85911880    F      0.90284964     -1.01091129     -0.79751217      0.00000000      0.00000000      0.00000000      1.35293273     -0.93562957     -1.27939267      1.35293273     -0.93562957     -1.27939267      1.35682585     -0.99736182     -1.23904033
Si             25.82186123     72.94289161      9.45701132      14     -0.20531495     -0.61853610      0.38512382       0      -1       0     132     -2.31355959      0.54810260     -0.47847957      2.85911880    F      0.62225226     -0.99823674     -1.12761581      0.00000000      0.00000000      0.00000000      0.91612456     -0.82962724     -1.37492201      0.91612456     -0.82962724     -1.37492201      0.87905880     -0.76272928     -1.38480902
Si             28.58991888     71.97467785      9.34019491      14     -0.46776654     -0.41793689     -0.48328233       0      -1       0     132      1.94941703     -0.02743437      1.33674587      2.85911880    F     -0.56803563     -0.81081304     -1.40205587      0.00000000      0.00000000      0.00000000     -0.56569580     -1.14882086     -1.03243974     -0.56569581     -1.14882086     -1.03243974     -0.49467300     -1.13000046     -1.01864440
Si             39.25520796     71.80374916      9.19158978      14     -0.06185439      1.17078863      1.82703440       0      -1       0     136      1.07611459     -0.17950801      1.45113825      2.85911880    F      0.21092032     -0.40722334     -0.87505182      0.00000000      0.00000000      0.00000000      0.97049817     -1.14224181     -1.13876727      0.97049817     -1.14224181     -1.13876727      0.92815498     -1.16592689     -1.17354702
Si             68.79467388     71.87810213      8.90603487      14      0.63414046      0.61308290      1.42220701       0      -1       0     136     -0.23266280     -0.51059339      0.19938681      2.85911880    F      0.22666255      0.23442989     -0.85391849      0.00000000      0.00000000      0.00000000     -0.61092795     -0.56424051     -0.91746568     -0.61092795     -0.56424051     -0.91746568     -0.61967589     -0.55171197     -0.92911417
Si             87.76437788     71.26600569      8.98353316      14      0.25658791      0.21081701      1.35648988       0      -1       0     138     -0.49365402     -3.48213970      0.14562451      2.85911880    F     -0.31657429     -0.02155705     -1.36506844      0.00000000      0.00000000      0.00000000     -0.40510747     -1.02234860     -0.79969753     -0.40510747     -1.02234860     -0.79969753     -0.38394077     -1.07377462     -0.84467738
Si             44.55261439     72.02093619      9.26561803      14      0.30375153     -0.42284891     -0.86892214       0      -1       0     141     -0.15339510     -1.15351033     -0.10398813      2.85911880    F     -0.47664091     -0.35204037     -1.49049277      0.00000000      0.00000000      0.00000000      0.09890740     -0.91375699     -1.02967475      0.09890740     -0.91375699     -1.02967475      0.08898607     -0.92516123     -1.00632311
Si             84.64707945     71.06999205      8.94122876      14     -0.73879077      0.58196199      0.67260176       0      -1       0     141      0.85888417     -1.27499683      0.55853743      2.85911880    F      0.15978176     -0.63551209     -1.36005651      0.00000000      0.00000000      0.00000000     -0.25359441     -1.06406839     -0.82753706     -0.25359442     -1.06406839     -0.82753706     -0.24741767     -1.04070360     -0.84838308
Si             20.99735906     72.27471640      9.25845675      14     -0.67975777     -1.11660249     -1.99035399       0      -1       0     125      0.30562916      0.34362022     -0.20204810      2.85911880    F     -0.00448563     -1.01035566     -0.99952764      0.00000000      0.00000000      0.00000000      0.29975391     -1.41525870     -1.03923372      0.29975391     -1.41525870     -1.03923371      0.32029074     -1.39777832     -1.00110716
Si             23.62580875     70.80099880      9.37605770      14     -0.85408995     -0.74543545      0.41052221       0      -1       0     144      0.49332828     -0.72130259     -1.43649229      2.85911880    F     -0.45219857      0.20670531     -1.13700349      0.00000000      0.00000000      0.00000000      0.30212533     -0.34961691     -0.86716778      0.30212533     -0.34961691     -0.86716778      0.27896438     -0.31418227     -0.87580821
Si             51.67278631     71.47672196      9.20154684      14      0.44775805      0.62562548      0.38632238       0      -1       0     127      0.41157295     -1.47427071      0.41998625      2.85911880    F     -0.30430512     -0.56039600     -1.09804470      0.00000000      0.00000000      0.00000000      0.19357599     -1.01223516     -0.90238809      0.19357599     -1.01223516     -0.90238809      0.23549394     -1.01374169     -0.89045904
Si             54.72925643     71.01104256      9.18755047      14      0.19366235      0.85121334      0.54730653       0      -1       0     135     -0.57193443      0.12891460      1.84236197      2.85911880    F     -0.01588243     -0.71624985     -1.83452441      0.00000000      0.00000000      0.00000000      0.67920615     -1.31811879     -1.67876590      0.67920615     -1.31811879     -1.67876590      0.71104270     -1.30430357     -1.65525244
Si             61.17228321     70.20609907      9.23011130      14      0.17434026     -1.01826046      1.66754682       0      -1       0     148     -0.75528124      1.77227973     -0.93113988      2.85911880    F      0.02800589     -0.64657599     -1.73064386      0.00000000      0.00000000      0.00000000      0.52286335     -1.06717775     -0.96547833      0.52286335     -1.06717775     -0.96547833      0.51998523     -1.03534453     -1.00090550
Si             64.10951355     69.58049920      9.04689668      14     -0.18498966     -1.46045274      0.00359401       0      -1       0     149      0.20421417     -0.08968941     -0.68008793      2.85911880    F      0.51727959      0.57144676     -0.66354604      0.00000000      0.00000000      0.00000000      0.21517035     -0.33744641     -1.15092781      0.21517035     -0.33744641     -1.15092781      0.16125991     -0.27932778     -1.14857478
Si              8.68876549     70.08670314      9.22908692      14      0.00000000      0.58946666      0.00000000       0      -1       0      79      0.51886520      0.82353465      0.17653674      2.85911880    F      3.37931464     -1.89003314     -1.26028903      0.00000000      0.00000000      0.00000000      1.45389854     -1.24389298     -0.25977146      1.45389854     -1.24389298     -0.25977146      1.43735211     -1.26089892     -0.24511415
Si             70.45889006     69.32082130      8.85078502      14     -0.13988845      1.14270900     -0.20103777       0      -1       0     154     -0.32709491     -1.61120978     -0.01088280      2.85911880    F      0.01484159     -0.44783578     -1.05287928      0.00000000      0.00000000      0.00000000      0.13437837     -0.78925336     -1.04921692      0.13437837     -0.78925336     -1.04921692      0.16172256     -0.82036051     -1.05137213
Si             91.21885679     66.69160867      8.95566298      14      1.55656336      0.73307232      1.82035052       0      -1       0     164     -0.68732293     -0.44177665     -0.24065479      2.85911880    F      0.54182406      0.08492087     -1.11875664      0.00000000      0.00000000      0.00000000     -0.11515386     -0.67544554     -1.22898677     -0.11515386     -0.67544554     -1.22898677     -0.07627185     -0.62938907     -1.22905264
Si             47.42711105     67.51927684      9.20245346      14      0.44940934     -1.95627759      1.62526180       0      -1       0     159     -0.57475176      2.17768963      0.33060167      2.85911880    F      0.55472873     -0.37377037     -0.98340472      0.00000000      0.00000000      0.00000000      0.24621534     -0.44054425     -1.08458778      0.24621534     -0.44054425     -1.08458778      0.20601184     -0.46063362     -1.13829839
Si             73.36705541     68.62799120      8.81704175      14      1.47838069     -1.29094333     -0.50771670       0      -1       0     156     -0.05586110     -1.12786870      0.64438873      2.85911880    F      0.22474727      0.16935977     -1.08206679      0.00000000      0.00000000      0.00000000     -0.01735974      0.13415091     -0.96543543     -0.01735974      0.13415091     -0.96543543     -0.06720177      0.13156165     -0.96656999
Si             75.72210113     70.45842795      8.83650567      14      1.94188029      1.16936181      0.55743030       0      -1       0     152      0.06781151     -0.43093186      0.22624075      2.85911880    F     -0.52054890     -0.53533042     -1.17228471      0.00000000      0.00000000      0.00000000      0.14217388     -0.40190660     -1.11539389      0.14217388     -0.40190660     -1.11539390      0.08395964     -0.38165605     -1.12586166
Si             31.69868712     67.81735400      9.26666233      14     -1.54920578      0.47819918      0.36385533       0      -1       0     155      0.28771942     -0.10745700      1.65517344      2.85911880    F     -0.10675911     -0.13941577     -0.93332687      0.00000000      0.00000000      0.00000000      0.16932607     -0.95488967     -0.95163069      0.16932607     -0.95488967     -0.95163069      0.18289433     -0.89565907     -0.95671182