7907
energy=-151062.16003861 n_efield_old=3 cutoff=10.58354498 nneightol=1.20000000 pbc="T T T" Lattice="263.62410964       0.00000000       0.00000000       0.00000000      82.43324632       0.00000000       0.00000000       0.00000000      19.87617225" Properties=species:S:1:pos:R:3:Z:I:1:momenta:R:3:map_shift:I:3:n_neighb:I:1:force:R:3:charge:R:1:fixdip:L:1:efield:R:3:dipoles:R:3:efield_old1:R:3:efield_old2:R:3:efield_old3:R:3
Si             35.32464058     77.99168917      8.79978544      14      0.84658998     -0.60699789     -0.62097993       0      -1       0      89      0.34290263     -1.16783643      0.35500388      2.85911880    F     -1.21920092     -1.42754699     -2.45701021      0.00000000      0.00000000      0.00000000     -1.46074038     -0.60367582     -3.35465912     -1.46074037     -0.60367582     -3.35465912     -1.43226615     -0.61684967     -3.33848410
Si             32.54684178     78.14379535      8.95709325      14      0.27011529      0.44059060      0.07919426       0      -1       0      91     -1.31778932     -0.19323719      0.72078435      2.85911880    F      0.54679323     -2.15503648     -0.69854135      0.00000000      0.00000000      0.00000000      0.73523372     -1.61153156     -0.77517079      0.73523372     -1.61153156     -0.77517079      0.70909668     -1.61231515     -0.80265816
Si             28.01774582     74.93186554      8.98218544      14     -0.06058367     -0.23760925     -0.37212837       0      -1       0     122     -0.27405293      0.98195482      1.19478579      2.85911880    F     -0.01565916     -1.45595390     -1.82879819      0.00000000      0.00000000      0.00000000      0.23611548     -1.27809128     -1.41282496      0.23611548     -1.27809128     -1.41282496      0.24460392     -1.28802657     -1.39304109
Si             25.65218780     76.72886603      9.06890359      14     -0.14360701     -0.98844599     -2.09904183       0      -1       0      99      0.74577622     -0.89613680     -1.42713902      2.85911880    F      0.15630831     -3.88562797     -1.10501660      0.00000000      0.00000000      0.00000000      0.29522980     -2.00501511     -0.11598817      0.29522980     -2.00501511     -0.11598817      0.25604540     -1.99108984     -0.11830879
Si             31.05001184     75.63648677      8.88184056      14     -1.16102595     -0.51652434      0.53565984       0      -1       0     103     -1.04512696      0.55223592      1.42507957      2.85911880    F      0.60940630     -0.68469879     -1.42001342      0.00000000      0.00000000      0.00000000     -0.16211120     -1.06479947     -1.40204721     -0.16211120     -1.06479947     -1.40204722     -0.19057815     -1.02957467     -1.40589913
Si             42.42911482     76.48245198      8.99550954      14      0.98970223      0.03703644      0.30051489       0      -1       0     104      1.58571391      0.29504939     -1.34963552      2.85911880    F      0.37615359     -4.09262121     -0.64326877      0.00000000      0.00000000      0.00000000     -0.38792386     -1.56219989     -0.41116573     -0.38792386     -1.56219989     -0.41116573     -0.40002378     -1.56354287     -0.38568247
Si             45.43716551     76.62245058      8.93993619      14      0.49673606      0.42802150     -0.15578217       0      -1       0     100     -2.04793989      1.27961328     -0.87189382      2.85911880    F      1.01999533     -3.15720159     -0.31905438      0.00000000      0.00000000      0.00000000      1.03697138     -1.59298329     -0.50026425      1.03697138     -1.59298329     -0.50026425      1.01443205     -1.57935389     -0.50344656
Si             55.14403718     77.46859822      9.10605644      14     -0.82359679      1.49058760     -0.68326056       0      -1       0      94     -0.36270420      0.27325082     -0.01911556      2.85911880    F      0.94831130     -3.57390657     -1.67212112      0.00000000      0.00000000      0.00000000      0.97365354     -2.16901088     -0.15974757      0.97365354     -2.16901088     -0.15974757      1.01277539     -2.21038033     -0.17317414
Si             60.14010260     74.91109046      8.97365175      14     -0.89155337     -0.30251635     -0.62545432       0      -1       0     117     -1.01998746     -0.22500143      0.12732555      2.85911880    F     -0.09558331     -1.20460331     -1.31387103      0.00000000      0.00000000      0.00000000      0.39133319     -0.83782367     -1.13355343      0.39133319     -0.83782367     -1.13355343      0.43298075     -0.84717922     -1.15279791
Si              8.64070509     73.76061526      9.00778604      14     -0.00000000     -0.49743724     -0.00000000       0      -1       0      75      1.11802405     -0.61987451      0.40394878      2.85911880    F      3.98577408     -2.33354760     -1.29706859      0.00000000      0.00000000      0.00000000      1.39376099     -2.02503014     -0.10408902      1.39376099     -2.02503014     -0.10408902      1.40077618     -2.05412121     -0.10265000
Si             10.57510422     76.20473716      9.03357288      14     -0.66796379      0.09290220     -0.84778638       0      -1       0      67     -3.09448801     -0.96572003     -0.65313398      2.85911880    F      1.34030723     -2.73426094     -2.17447236      0.00000000      0.00000000      0.00000000      0.54628966     -0.71508422     -0.46176238      0.54628966     -0.71508422     -0.46176238      0.55335461     -0.72069104     -0.47114141
Si             13.57338986     75.66375067      9.08176394      14     -0.34648940      1.32686746      1.51335643       0      -1       0      80     -0.12218452      0.54983696     -1.06119049      2.85911880    F      1.14303731     -3.71442987     -0.92538989      0.00000000      0.00000000      0.00000000      1.57688608     -2.11232607     -0.05569031      1.57688608     -2.11232607     -0.05569031      1.56660851     -2.11657606     -0.04638041
Si             50.63055761     74.39558274      9.16851043      14      0.21195096      0.41915828     -0.17900697       0      -1       0     120     -0.77523534     -0.57678206     -1.50005634      2.85911880    F      0.08382784     -1.21231868     -1.42958119      0.00000000      0.00000000      0.00000000      0.04819888     -1.98439576     -0.98437217      0.04819888     -1.98439576     -0.98437217      0.04909558     -1.93483698     -0.97962816
Si             52.15256390     76.92977655      8.98650266      14     -0.67714076     -0.65827539     -0.42421502       0      -1       0      94      0.11334402     -0.24562638      1.93465576      2.85911880    F      0.09742451     -3.17052652     -1.08481265      0.00000000      0.00000000      0.00000000     -0.51923869     -2.25686903     -0.38454521     -0.51923869     -2.25686903     -0.38454521     -0.51276426     -2.26704058     -0.38704220
Si             20.14868784     75.20357204      8.96199815      14      0.06177801      0.60641455      0.39764434       0      -1       0     101      0.32611229      0.50087503     -1.34793796      2.85911880    F      0.54812397     -2.32441169     -0.54729691      0.00000000      0.00000000      0.00000000      0.54169982     -1.48522459      0.06989220      0.54169982     -1.48522459      0.06989220      0.52647229     -1.50463987      0.08370866
Si             38.01023873     73.35549516      8.86578948      14     -0.76552514      0.53109041     -0.94290614       0      -1       0     134     -2.01252208     -1.72114140      0.34126468      2.85911880    F      0.18027691     -1.24619546     -0.95923947      0.00000000      0.00000000      0.00000000     -0.49218951     -1.70971480     -1.15000622     -0.49218951     -1.70971480     -1.15000622     -0.46874681     -1.68990153     -1.08560700
Si             15.05705555     73.17730370      9.05754149      14     -0.16481055      0.47016332     -0.31902606       0      -1       0     109     -0.35572667     -0.75074497     -0.68753647      2.85911880    F      0.09854041     -1.14561491     -1.04047866      0.00000000      0.00000000      0.00000000     -0.06567501     -1.68545690     -1.65796601     -0.06567501     -1.68545690     -1.65796600     -0.09292003     -1.69837338     -1.66488182
Si             23.10511965     75.08503781      8.98844043      14     -0.80783342     -1.25587171      0.78191678       0      -1       0     104     -0.85195554      0.66142612     -0.87144812      2.85911880    F      0.55684888     -2.36187739     -1.25982113      0.00000000      0.00000000      0.00000000      0.59857680     -1.90553395     -1.10519680      0.59857680     -1.90553395     -1.10519680      0.55752331     -1.87403339     -1.11595833
Si             33.36656120     73.71876241      8.82980357      14      0.55452811      1.69636918      0.81911955       0      -1       0     130     -0.24696420     -1.19574916      0.65172367      2.85911880    F     -0.52011297     -0.57397090     -0.70672497      0.00000000      0.00000000      0.00000000     -0.81455599     -2.25357147     -0.88679687     -0.81455599     -2.25357147     -0.88679687     -0.83632300     -2.28405517     -0.84675262
Si             35.88348765     75.26039772      9.81248245      14     -0.41016888      1.66244447     -0.38062256       0      -1       0     108      0.56924318      0.72271467      0.09656391      2.85911880    F      0.17977933     -1.72758825     -3.23199887      0.00000000      0.00000000      0.00000000     -0.61812613     -1.31186614     -0.60563583     -0.61812613     -1.31186614     -0.60563583     -0.63009343     -1.33894700     -0.62722512
Si             41.06476597     73.88578766      9.06124200      14     -1.51830772      1.73648255     -0.68882149       0      -1       0     123     -0.59431934     -0.44396565     -0.36978338      2.85911880    F      0.34639417     -1.71523604     -2.11458599      0.00000000      0.00000000      0.00000000      0.22858983     -1.41555475     -0.92009556      0.22858983     -1.41555475     -0.92009556      0.31323385     -1.46481936     -0.86462825
Si             47.56726540     74.56491852      8.99519731      14      0.86231630      1.55584930     -0.36020469       0      -1       0     117      1.28575509      0.39399556      1.22369845      2.85911880    F      0.09662923     -1.59863986     -1.54884820      0.00000000      0.00000000      0.00000000      0.35519811     -1.63835969     -1.27526783      0.35519811     -1.63835969     -1.27526783      0.32136613     -1.62424241     -1.33089178
Si             52.60765876     72.04228223      9.12018940      14     -1.03665342     -0.84981278     -0.52862579       0      -1       0     144     -1.19246139      1.62430827     -0.10878171      2.85911880    F      1.00705656     -0.70796434     -1.40221864      0.00000000      0.00000000      0.00000000      0.90889046     -0.98163627     -0.06540684      0.90889046     -0.98163627     -0.06540684      0.96070193     -1.00792293     -0.06085198
Si             23.98141506     72.24838796      8.90995460      14      0.00068013      1.07459107      0.08620687       0      -1       0     132      0.81661902     -1.45118479      0.06163118      2.85911880    F      0.49611513     -0.51185856     -1.11312780      0.00000000      0.00000000      0.00000000     -0.21868291     -1.10935520     -1.02949228     -0.21868290     -1.10935520     -1.02949228     -0.24175659     -1.11122318     -1.02404804
Si             18.07194192     72.98197564      8.93337202      14     -0.75403976      0.44804915     -0.53721926       0      -1       0     126      0.40237845     -0.13128780      1.54392917      2.85911880    F     -0.12818350     -1.30671449     -1.57535442      0.00000000      0.00000000      0.00000000      0.11913462     -2.07843790     -1.45161319      0.11913462     -2.07843790     -1.45161319      0.12758626     -2.09445621     -1.41749294
Si             55.48426890     72.61317980      9.03266193      14      0.22255386      0.48563909     -0.99060562       0      -1       0     147      0.87946599      0.03308176      0.90899329      2.85911880    F     -1.02157052     -0.50929604     -1.06628114      0.00000000      0.00000000      0.00000000     -0.13249052     -1.19462036     -0.76282178     -0.13249052     -1.19462036     -0.76282178     -0.17640672     -1.18148658     -0.73637763
Si             27.10946438     72.08988835      8.93819803      14     -1.25631230      0.69689465     -0.12038216       0      -1       0     133     -1.27382902     -0.99342328     -0.35265129      2.85911880    F      0.00691129     -0.66995581     -0.98073106      0.00000000      0.00000000      0.00000000      0.48473107     -0.35117610     -0.74370689      0.48473107     -0.35117610     -0.74370689      0.52428294     -0.40222999     -0.75429842
Si             45.97224451     72.00508433      9.08191182      14     -1.19650886     -0.95159472     -0.51803080       0      -1       0     137      0.12511290     -0.80688336     -0.54650381      2.85911880    F     -0.45274249     -0.94208512     -0.89980531      0.00000000      0.00000000      0.00000000     -0.14330664     -1.14218271     -1.48832934     -0.14330664     -1.14218271     -1.48832934     -0.10462564     -1.06331532     -1.50787011
Si             43.07297756     71.59482827      8.95504800      14     -0.43360023     -0.28041416     -0.96630981       0      -1       0     145     -3.53261057     -1.28713381      0.20223775      2.85911880    F      0.71923671     -0.22706784     -1.11691721      0.00000000      0.00000000      0.00000000      0.67785996     -0.46335923     -1.12144182      0.67785996     -0.46335923     -1.12144182      0.65117990     -0.43559368     -1.10367303
Si             10.13493062     71.11910105      9.02893968      14      1.07606399      0.48577915      1.80893295       0      -1       0      97     -1.41554827      0.19694911      1.18822611      2.85911880    F      1.05485959     -0.44534397     -1.67510249      0.00000000      0.00000000      0.00000000      1.77880583     -1.35323352     -1.72949966      1.77880583     -1.35323352     -1.72949966      1.74196306     -1.36576546     -1.76793669
Si             13.11034628     70.90884403      8.96752076      14      0.72098292      0.68431812     -1.14350017       0      -1       0     117     -0.13352549     -0.68865397      1.44348159      2.85911880    F      0.30768176     -0.49567373     -1.21574554      0.00000000      0.00000000      0.00000000      0.03034023     -1.74094582     -1.41238203      0.03034023     -1.74094582     -1.41238203     -0.06534609     -1.72048617     -1.39484151
Si             19.25353074     70.27939063      9.05235917      14     -0.51981395      1.49590281     -0.35682049       0      -1       0     146     -0.27025589     -4.07555092      1.23310595      2.85911880    F      0.08672886      0.25312552     -1.34855306      0.00000000      0.00000000      0.00000000      0.23238680      0.09119819     -0.73436278      0.23238680      0.09119819     -0.73436278      0.26647458      0.03463109     -0.73213207
Si             22.28152381     69.71747637      9.02842845      14      0.32908664     -0.34444135      1.40987425       0      -1       0     148     -0.25239640      1.20041817     -1.00472674      2.85911880    F      0.09959866     -0.24651130     -1.25624071      0.00000000      0.00000000      0.00000000      0.64097210     -0.03376882     -0.77442127      0.64097210     -0.03376882     -0.77442127      0.66842968     -0.06417384     -0.82673684
Si             28.59398677     69.39987828      8.96186462      14      0.51370099      0.73290547      1.03719891       0      -1       0     156     -0.32103641      2.12307435      0.81977100      2.85911880    F      0.26013336     -0.69486610     -0.98829591      0.00000000      0.00000000      0.00000000      0.23953925     -0.41873264     -1.06259014      0.23953925     -0.41873264     -1.06259014      0.21152084     -0.39682768     -1.06807759
Si             49.44061797     67.83442104      9.16720096      14     -0.26395060     -0.13217357     -0.19787772       0      -1       0     162      0.10587511      1.45911054     -1.81775457      2.85911880    F     -0.12059048     -0.16410513     -0.77607694      0.00000000      0.00000000      0.00000000      0.25982796      0.11878633     -0.76976808      0.25982796      0.11878633     -0.76976808      0.28636686      0.17251095     -0.77716410
Si              5.82921381     67.36738748      9.01138439      14     -0.00000000     -1.00073237     -0.00000000       0      -1       0      84      0.47545380      0.49046981     -0.06820901      2.85911880    F      3.92967661     -0.96971885     -0.94787351      0.00000000      0.00000000      0.00000000      2.19618153     -0.50868756      0.06744121      2.19618153     -0.50868756      0.06744121      2.18551675     -0.50270499      0.05749542
Si             31.55771418     68.71357585      8.96149027      14     -0.59949858      0.35733404     -1.74910381       0      -1       0     154     -0.51915682      1.26035089      0.10573835      2.85911880    F     -0.37021694     -0.87905354     -1.03168281      0.00000000      0.00000000      0.00000000     -0.74635577     -0.65810218     -1.32886560     -0.74635576     -0.65810218     -1.32886560     -0.74678498     -0.67641214     -1.32644673
Si             33.90298666     70.69099717      9.04772471      14      0.18145421      0.31979819     -1.36509904       0      -1       0     152      0.45627228      0.42321517     -2.30671050      2.85911880    F     -0.11612919     -0.33156271     -1.10064244      0.00000000      0.00000000      0.00000000     -0.30847663     -0.29615941     -0.96521275     -0.30847662     -0.29615941     -0.96521275     -0.29120765     -0.31049857     -0.96701584
Si              8.47696299     68.54563604      9.10537591      14     -0.00000000     -1.34191082     -0.00000000       0      -1       0     107     -0.21437340      0.97567687     -0.06854361      2.85911880    F      1.00840840     -1.02792288     -1.31161073      0.00000000      0.00000000      0.00000000      0.86526701     -0.92173517     -0.90339473      0.86526701     -0.92173517     -0.90339472      0.86354378     -0.87544201     -0.92872814
Si             56.59372613     69.81043280      9.26082745      14      0.38248072      1.31847024     -2.31612535       0      -1       0     158     -0.57562152      0.13364735      0.65702463      2.85911880    F      0.10330916     -0.46624080     -1.28903382      0.00000000      0.00000000      0.00000000      1.51974111     -0.45868687     -0.80235186      1.51974111     -0.45868687     -0.80235186      1.49979072     -0.55000799     -0.74590865
Si             58.92375936     68.31185693      9.03179835      14      0.27876708      0.96093638     -0.85362923       0      -1       0     166      3.14957745     -1.36320643      0.07925059      2.85911880    F     -0.03351687     -0.31972521     -0.56852121      0.00000000      0.00000000      0.00000000     -0.79730087     -0.10710113     -0.33791012     -0.79730087     -0.10710113     -0.33791012     -0.72162182     -0.13783510     -0.29671369
Si             41.95380861     68.66121089      9.04859166      14      0.57004155      1.54617897      1.00730673       0      -1       0     160      0.16856513      0.89302388     -1.90337440      2.85911880    F      0.44896328     -0.20844127     -0.91202811      0.00000000      0.00000000      0.00000000      0.01501176     -0.37954437     -0.20773687      0.01501176     -0.37954437     -0.20773687      0.03603209     -0.35969432     -0.25220724
Si             38.91350584     68.20231489      8.94192164      14     -1.44169744      0.10444913     -0.76326525       0      -1       0     155     -0.78582254      0.30794306      0.46149273      2.85911880    F      0.16035072     -0.78302664     -0.80857903      0.00000000      0.00000000      0.00000000      0.38932466     -0.24195078     -0.97603357      0.38932466     -0.24195078     -0.97603357      0.41041870     -0.26970557     -0.97010353
Si             52.16401222     69.08847701      9.11618157      14     -0.28497525      1.01722124     -0.54115906       0      -1       0     169     -1.08311619     -0.58904628     -0.89903927      2.85911880    F     -0.36352429     -0.45832846     -0.97373608      0.00000000      0.00000000      0.00000000      0.58250958     -0.99223912     -1.04366052      0.58250958     -0.99223912     -1.04366052      0.62943357     -0.98278565     -1.08750388
Si             14.20665754     68.04696088      9.16057793      14     -0.31391787      0.61896107     -0.39007241       0      -1       0     149      0.13290156     -1.02472753     -0.72982884      2.85911880    F      0.59392455     -0.04528938     -1.41505135      0.00000000      0.00000000      0.00000000      0.02097038     -0.36864299     -0.48782338      0.02097038     -0.36864299     -0.48782338      0.01117329     -0.42012644     -0.50968082
Si             17.30717783     67.86963876      9.11268884      14      0.35037308      0.84611227     -2.01306130       0      -1       0     149     -2.01393315     -0.05901264     -1.03473639      2.85911880    F      0.95404976     -0.14247390     -0.77690589      0.00000000      0.00000000      0.00000000      1.02434031     -0.86933839     -0.81056912      1.02434031     -0.86933839     -0.81056912      0.99263359     -0.86873603     -0.77791666
Si             46.69804602     69.14423140      9.13151657      14      0.37687984     -0.85480353     -1.60977615       0      -1       0     166      0.39919948     -1.24508812      0.34110629      2.85911880    F      0.05620569     -0.07104996     -0.57140879      0.00000000      0.00000000      0.00000000     -0.26821973     -0.39823064     -1.37433720     -0.26821973     -0.39823064     -1.37433720     -0.26703881     -0.36264312     -1.40343281
Si             23.77275661     66.97940941      9.02854017      14      0.29247235     -0.90069881     -0.47315184       0      -1       0     161      0.17222645      1.20416440     -1.73133509      2.85911880    F     -0.10101410     -0.32852641     -0.89042246      0.00000000      0.00000000      0.00000000     -0.28195625     -0.65079953     -0.79414641     -0.28195625     -0.65079953     -0.79414641     -0.27451977     -0.63371563     -0.79105438
Si             26.80835539     66.94144607      8.99247090      14     -0.50791371     -0.69920517     -0.72996655       0      -1       0     158      0.21765358     -1.17929241     -0.64786130      2.85911880    F      0.27540064      0.12990176     -1.10223448      0.00000000      0.00000000      0.00000000      0.02821915      0.04411128     -1.09964327      0.02821915      0.04411128     -1.09964327      0.04872072      0.05954722     -1.09730990
Si             44.43643712     67.08058656      9.06112248      14     -0.18320670     -0.09205633     -0.14105329       0      -1       0     172     -0.39894937      1.78644932      0.50310610      2.85911880    F      0.56126502     -0.53239661     -1.34877132      0.00000000      0.00000000      0.00000000     -0.08159919     -0.43906233     -0.91836785     -0.08159919     -0.43906233     -0.91836785     -0.12031603     -0.44445443     -0.94301133
Si             54.68770586     67.48532127      9.23284417      14      0.58253800      0.13804725      0.86652134       0      -1       0     180      0.00501452     -2.17656358     -0.47605952      2.85911880    F     -0.43064504      0.58197876     -1.06410938      0.00000000      0.00000000      0.00000000     -0.22635674      0.71568648     -1.16467680     -0.22635674      0.71568648     -1.16467680     -0.28124434      0.73450124     -1.15512026
Si              9.60694882     65.70751135      9.10546552      14      0.00000000      0.30999405      0.00000000       0      -1       0     123     -0.61367442     -0.52701322     -0.13876036      2.85911880    F      0.57017496      0.69438344     -1.13635667      0.00000000      0.00000000      0.00000000      0.48008994     -0.03807016     -1.01605629      0.48008994     -0.03807016     -1.01605629      0.49114299     -0.02352780     -1.00877864
Si             12.59485784     65.46341389      9.22972244      14      0.26879202      0.68808976      0.32840749       0      -1       0     152      0.51361199     -0.64747078     -1.28719399      2.85911880    F      0.21653798      0.07636498     -1.14692514      0.00000000      0.00000000      0.00000000      0.59649571     -0.18676334     -1.03815988      0.59649571     -0.18676334     -1.03815988      0.56182060     -0.15672959     -1.05275573
Si             59.03253632     65.43464062      9.19030280      14     -0.35468619     -0.06415261     -0.57202912       0      -1       0     167     -0.40218941      0.01358351     -1.05557613      2.85911880    F     -0.02466001      0.05865714     -0.62721830      0.00000000      0.00000000      0.00000000      0.38264946      0.04636881     -0.58823343      0.38264946      0.04636881     -0.58823342      0.41429796      0.02146196     -0.55470500
Si             31.62802804     65.67144356      9.04165735      14      0.99847302     -1.52756781     -0.68546556       0      -1       0     171     -1.34117260      1.12683347     -0.28082980      2.85911880    F      0.06568982     -0.37906410     -1.18512253      0.00000000      0.00000000      0.00000000     -0.22192098      0.12078389     -0.84364173     -0.22192099      0.12078389     -0.84364173     -0.22538953      0.16491768     -0.81989087
Si             18.70284211     65.23566020      9.01734477      14      0.80947942     -0.63033144     -1.59986110       0      -1       0     159     -0.64445900     -1.38577574      2.27044430      2.85911880    F     -0.08446203     -0.13536791     -1.23775425      0.00000000      0.00000000      0.00000000     -0.11851436     -0.36133555     -1.59062536     -0.11851436     -0.36133555     -1.59062536     -0.11406760     -0.38792621     -1.59650256
Si             21.73880545     64.72482252      9.06743169      14     -1.14082857     -1.04587690     -1.30878312       0      -1       0     158     -0.20329826      1.21797544     -1.71550613      2.85911880    F      0.01071560     -0.57422992     -0.86988072      0.00000000      0.00000000      0.00000000     -1.26756289     -0.12124020     -0.98808145     -1.26756289     -0.12124020     -0.98808145     -1.22911833     -0.13543768     -0.95984184
Si             28.76961613     64.55429520      8.98796775      14      0.04168046     -0.15923004     -0.70759152       0      -1       0     157     -0.15011108     -1.46365308      1.58312097      2.85911880    F      0.44913465      0.06531551     -1.23950748      0.00000000      0.00000000      0.00000000     -0.30038313      0.61454691     -0.74598017     -0.30038313      0.61454691     -0.74598017     -0.33023363      0.62572985     -0.71928877
Si             38.95118706     65.27160779      8.92000609      14      0.46407062      0.22886930      0.46524299       0      -1       0     169     -0.18027149     -1.86490074      0.96698208      2.85911880    F      0.10094442      0.05915439     -0.99976607      0.00000000      0.00000000      0.00000000      0.64803224     -0.25433712     -0.92316311      0.64803224     -0.25433712     -0.92316311      0.58363418     -0.26515075     -0.92660911
Si             57.23840883     62.95523185      9.30052810      14      0.23869372      1.41289313      0.49404636       0      -1       0     173     -0.46310792     -0.40393169      1.13816514      2.85911880    F      0.22654784      0.35517263     -1.05620972      0.00000000      0.00000000      0.00000000     -0.85344962     -0.14997232     -0.65086648     -0.85344962     -0.14997232     -0.65086648     -0.84646764     -0.19737321     -0.65084029
Si             33.74726294     63.64072012      9.00336149      14      0.46991488      1.06074163      0.95871335       0      -1       0     149     -0.12356610     -1.19938751     -0.22774440      2.85911880    F     -0.64253442     -0.34637677     -1.03391264      0.00000000      0.00000000      0.00000000      0.24188484     -0.26031471     -0.45398051      0.24188484     -0.26031471     -0.45398051      0.24854072     -0.24016368     -0.38925272
Si             41.56809746     63.66243882      8.91694261      14     -0.91295128     -0.68728892     -1.75099204       0      -1       0     173     -1.52130427      0.26749087     -0.33016024      2.85911880    F      0.37061766     -0.38159593     -0.65571958      0.00000000      0.00000000      0.00000000      0.56083745     -0.95759579     -0.44989778      0.56083745     -0.95759579     -0.44989778      0.53952037     -0.98503824     -0.45889774
Si             44.48627003     64.17790488      8.88685256      14     -0.39492618     -0.03247941     -0.48673599       0      -1       0     155      1.90421505     -0.25079818      0.71225171      2.85911880    F     -0.49318911      0.68240660     -1.09250059      0.00000000      0.00000000      0.00000000     -0.30082591      0.51783270     -0.69234393     -0.30082591      0.51783270     -0.69234393     -0.29710019      0.54277803     -0.66029229
Si             54.73740582     64.36459783      9.27864490      14     -1.04587535      0.12387746     -0.19292320       0      -1       0     164     -1.20624151      0.82226327      1.17935197      2.85911880    F     -0.51663896     -0.73933958     -0.87690544      0.00000000      0.00000000      0.00000000      0.68267514      0.05835222     -0.93548427      0.68267514      0.05835222     -0.93548427      0.69574863      0.05458552     -0.91486430