7919
energy=-151404.38776990 time=2010.00000000 temperature=292.65031824 cutoff=10.58354498 nneightol=1.20000000 pbc="T T T" Lattice="263.77490428       0.00000000       0.00000000       0.00000000      82.43324632       0.00000000       0.00000000       0.00000000      19.87617225" Properties=species:S:1:pos:R:3:Z:I:1:momenta:R:3:force:R:3
Si             35.40041457     77.84227470      8.45483821      14      0.45830683      0.21461523      0.04534074     -0.38998786      0.10753819     -0.21315171
Si             32.57392020     78.28717972      8.84750764      14     -0.81868955      0.60359909     -0.82807853      2.93822559      0.38230450      0.74131984
Si             28.12349506     74.93126660      9.02103047      14      0.26215956     -0.09814214     -0.89691325     -0.62609620     -1.18721060      0.81947252
Si             25.56088101     76.51471561      8.95188116      14     -0.37198198     -0.53342523     -0.69692451     -0.34526163     -0.29675777     -1.11372300
Si             31.00949878     75.69850820      8.90044332      14     -0.97104684     -0.77544679     -0.24704021      1.32741090      0.45937973      0.74927951
Si             42.43679756     76.54854889      8.92327693      14      0.03955341     -0.08117065      0.46296153     -0.26810472     -1.35297899     -0.99600316
Si             45.47748104     76.63223809      9.03812832      14     -0.11585209     -0.14960664     -0.19341535     -1.44725650      0.65824578      0.00296506
Si             55.17260132     77.48337213      9.12275933      14     -0.22889070     -0.24414194     -0.57383750      1.88283590     -1.30603867     -0.28308371
Si             60.21378362     75.20030313      9.16522141      14     -0.06239026      0.28072978      0.62123086     -0.64778956     -0.40851365      2.50187527
Si              8.64491955     73.93937924      9.00933799      14     -0.00000000     -0.00403035     -0.00000000     -0.09549424     -0.14114218     -0.31399645
Si             10.61984579     76.23690617      9.11332608      14     -1.14234350      0.66826029     -0.68795867     -0.98843640      0.75438283     -0.96996445
Si             13.62265123     75.69373389      9.15955391      14     -0.92139334      0.45055232     -0.16489886     -0.41088734      0.01776347     -0.01633131
Si             50.53151471     74.63970125      8.97889149      14      0.30176117     -0.49929337     -0.67296695     -3.75391789     -0.41911983      0.02790822
Si             52.26352024     76.99897725      9.01181813      14     -2.49090729      0.28880606      0.44469707     -0.23002912     -0.57676838     -0.81323999
Si             20.02154386     75.32171855      8.89379394      14      0.78121363      0.10928888     -1.25475979     -0.89006381     -0.79888250      0.96324340
Si             37.99321877     73.08958729      9.04935841      14     -0.34754915     -2.22563565      0.33148593      0.10602097      0.56977173     -0.29960479
Si             15.15484297     73.13343176      9.08631156      14     -0.63003578      0.12378646     -1.33546629      0.92719105     -0.13849547      1.35831065
Si             23.03804868     74.96560795      9.06008680      14     -0.31098648     -0.72032631      0.65247405      1.02050469     -0.96223506     -0.70154713
Si             33.21191657     73.63922178      8.97277974      14     -0.47491335     -1.24670910      0.42198034      1.64692547      0.48874527      0.12141400
Si             35.90212558     75.17727994      9.68149555      14      1.56290356      0.34315494     -0.07890775     -0.50727990     -0.49994176      0.40675356
Si             41.03238650     73.90109571      8.95828861      14      0.24602091     -0.73250113      0.94907722     -2.06082662     -0.52288799     -1.18643569
Si             47.51777768     74.43904462      9.08262031      14      0.70271790      0.62130163      0.55201241     -0.30207024     -1.39008304     -0.46119284
Si             52.53379929     72.45427516      9.16530955      14     -1.97857405     -0.33749132      0.04801488      2.57463379      1.91386470     -1.74816465
Si             24.15556134     72.08970242      9.00754143      14     -0.57641296     -1.04824619     -0.78591393      0.13160110      0.72209603     -1.52962127
Si             18.21021963     72.95105507      9.13508608      14      0.10393793     -0.11969224      1.65994903      0.95493758     -0.51769256     -0.12234446
Si             55.60030396     72.67334321      9.16294268      14     -0.71730492     -0.75186335     -1.21375114     -1.99169853      1.41042140      0.59515872
Si             27.21527536     71.95098652      8.96824429      14     -0.79905589      0.47246503      0.71971758     -0.31366423      1.45773852      0.90106632
Si             45.92959043     71.84058831      8.92072555      14     -0.59912386     -1.03451268     -1.27386520     -0.35165066      0.23911555      0.10793523
Si             42.91964882     71.57177427      8.95464826      14      0.26057371     -0.29977737     -0.47619077     -2.01011071      0.64782933     -0.90959471
Si             10.08467997     71.28024084      9.12604334      14      0.15507093      0.28656004      0.30381467     -0.84551766      0.19859380     -1.86363294
Si             13.16203063     70.79899586      9.01662275      14     -0.69218064      0.02938786     -0.07766218     -0.24727649     -0.07268726      1.12782594
Si             19.29544876     70.13313078      9.09366992      14     -1.95835081      1.62189329     -1.37164057      0.77761411      1.41857556     -1.21328863
Si             22.29630976     69.70469815      8.99956015      14     -0.40608252     -0.97447327      0.14888341      1.35935559     -0.41005318      1.11765203
Si             28.59913602     69.29798096      8.97916300      14     -0.47302811      1.55742732     -0.26689699      0.30995137     -1.04363381      0.30293831
Si             49.59670979     67.83744610      8.96116058      14     -1.85239581      0.57349033     -0.18197648     -0.40637687     -2.11529198      0.36407026
Si              5.80540870     67.50251478      9.01246970      14     -0.00000000     -0.68218756     -0.00000000      0.63860140      2.34429033     -0.12290487
Si             31.55983987     68.59557519      8.97484957      14      1.99466472     -0.12902203      0.51576304     -1.34592102     -0.94846316      0.06349166
Si             33.77872930     70.63083819      8.99553170      14      1.15427720      0.91133084      1.54584234      1.03941233      0.28264991      0.74026233
Si              8.44590530     68.72889543      9.10331315      14      0.00000000      0.86828787      0.00000000     -0.95520330     -0.40258103     -0.58569766
Si             56.60925991     69.85748626      9.22177086      14     -1.17106209      0.91624085      0.02100677     -2.54032879     -1.00046836     -0.20758231
Si             59.05275941     68.54826889      9.24420010      14     -1.68063630      0.62121724     -1.22873313      2.36589494      0.70217664     -0.95850317
Si             41.88661844     68.69737454      9.00209738      14      1.48537584      0.21165777     -0.92189060      0.35976750     -0.24685426     -0.61826772
Si             38.85478651     68.01596117      9.08284096      14     -0.61562104     -0.07096257      0.71104053      1.56779813     -1.32351969     -1.52224461
Si             52.08490488     69.44983369      8.99892886      14     -1.15050793      0.41876460      0.26601414     -0.10650633      0.35048577     -1.10616627
Si             14.28888613     67.96043230      9.01809066      14      0.01027097      0.37591770     -1.14631858      1.97233942      1.05036212     -1.50359393
Si             17.36730712     67.77685388      8.92157511      14     -0.13259181      0.12946940     -1.65778964     -0.28950006      1.39523715      0.65168480
Si             46.77587101     68.93058157      8.88698025      14     -0.86098494      0.73964661      1.84800004     -1.83387252      0.17976779      0.31375239
Si             23.74992190     66.98430774      9.07769126      14      0.78987912      0.16415534      0.65860857      2.13612288     -2.68383657     -0.43340096
Si             26.93448327     66.72791739      9.07773798      14     -0.38245582      2.00681513      0.57412851     -1.85413774     -0.02942897      0.36020306
Si             44.39135941     67.09431967      8.97245276      14     -2.03254735     -0.42339100      0.04924598      0.31981593      1.34878128      0.27632391
Si             54.57253549     67.55197323      9.14831346      14     -1.68977341     -0.39879534     -0.66676248     -0.14093068      3.18580788     -1.77749273
Si              9.58274030     65.87704654      9.10666262      14     -0.00000000     -0.41951296     -0.00000000     -1.42077401      1.47730698     -0.90316271
Si             12.63999717     65.39437580      9.03433216      14     -0.65675760     -0.09199361     -0.16784071     -1.20498273      1.44898431     -0.57382717
Si             59.18181832     65.72731157      9.29211512      14     -0.82757339      0.93617752     -0.00549311      0.58062743     -0.28268391     -1.07308028
Si             31.80826729     65.55717498      8.97295018      14      0.95826257     -0.72893520     -0.65107370      1.21924410      0.94362937      0.82658965
Si             18.87257671     65.15688031      8.92479593      14     -0.07888946     -0.80714286     -0.68549849     -1.75641283     -0.31850490     -0.44994803
Si             21.72872903     64.58864974      8.97617829      14      0.00992601     -0.07013320     -0.10624562      2.55565258     -1.29952607      1.10693157
Si             28.97559357     64.42491617      9.06495190      14     -0.38004454     -0.87006496     -0.56276956     -0.96832703      0.62836443      1.57642439
Si             38.87795894     64.97347196      9.07477713      14     -1.42071264      0.13836002      0.32881480     -0.46391525      1.94106311     -1.07405272
Si             57.33111580     63.31527374      9.20301658      14      0.17087626     -1.22055758      0.20753101      1.41858776     -0.10411602      1.19101362
Si             33.76810701     63.38687527      9.00399876      14      0.44318085     -0.30329850     -0.19529971     -0.44369979     -0.49668684     -0.12473358
Si             41.48377281     63.45010964      9.11872651      14      0.92523482      0.52442090      1.47371626      1.37903160     -0.41557179     -0.32088963
Si             44.52429848     64.07314307      9.07143114      14     -0.40040688      0.08260225     -0.68332149      0.86834297      0.75107283     -0.19412054
Si             54.56580983     64.50547703      9.18863271      14     -0.17701991      0.43003442     -0.59993611     -0.15349169      1.49426559     -1.30816874
Si             36.70796611     62.89339379      9.10736507      14     -0.95023631      1.07221980      0.08728750      0.76410828     -1.08105018     -0.67853149
Si             49.59556545     64.89803673      9.03228687      14     -0.53949192     -0.27432491     -0.32367405     -0.11875531      0.24107733     -1.07071327
Si              6.81682941     64.73073641      9.11378363      14      0.00000000      0.12362145      0.00000000      0.37881711     -1.45998116      0.04993979
Si             14.09958218     62.71926322      8.93670861      14      0.29790693      0.00340648     -0.52736928     -1.76739799     -0.96513798     -1.27094770
Si             51.91880960     62.99897446      9.07720230      14     -0.41378851     -0.05876373     -0.11015877      0.51597978      1.14254419     -0.42748338
Si              5.64846101     61.97461409      9.06318982      14      0.00000000      0.63712846      0.00000000      0.13134556     -0.35806702      0.05313530
Si             17.09241622     62.68051401      8.84286343      14      1.04640950     -1.95926328     -0.04532596     -0.41789207      0.60500765      2.03150421
Si             47.25964807     63.11460992      9.14545339      14      1.56655937      1.48951852     -0.06786653      0.79586436     -0.60973941      1.18690575
Si             19.06639916     60.43289752      9.03155193      14      0.55770868     -0.02259639      1.61424515     -1.13152857     -1.68843405      0.28720676
Si             37.86521288     60.01350331      9.13754196      14     -0.94126958      0.98751702     -0.10633824     -0.46874256      1.63466517      0.08863283
Si             40.91334409     60.44396991      9.20182688      14     -0.96860945     -1.46717930     -0.63044004     -1.12692795     -0.22304043      0.19198109
Si             28.92932660     61.37292853      9.16162252      14      1.23532039     -1.26579986      0.10470449      0.89778293     -0.53694973      0.56864320
Si              9.89258771     58.89647476      9.11813204      14     -0.00000000     -0.40721047     -0.00000000      1.23996407      0.16433586     -0.69667185
Si             31.95076881     61.04012527      9.07393192      14     -0.26032513      1.07236191     -0.73577352     -0.58234649     -2.57167841      1.45480557
Si              6.92536590     59.21629962      9.13078129      14     -0.00000000     -0.07723671     -0.00000000     -0.84790223      0.68861933      0.19769777
Si             12.63884570     60.06972216      9.09364911      14     -1.04857280     -0.18631199      0.39380935      1.07906657     -0.23874269     -1.00824085
Si             58.79004378     60.56099696      9.27422642      14     -0.80775062      0.13694549      0.89150530     -0.59995354      0.42545565     -0.06820585
Si             23.87467172     59.26103767      8.99926174      14      1.97295792     -0.49569454      0.58369815      0.67836012     -2.10733229      0.29287222
Si             26.86755459     59.07853522      9.24327055      14      2.15757711     -0.76748804      1.67838808     -0.14033992     -0.07127357     -0.24978905
Si             43.21699323     58.54202825      9.35453576      14      1.04456537     -0.42966411      0.18561370      0.23717615      0.84506528     -0.99279780
Si             56.82853335     58.15471726      9.24456181      14      0.46750151     -0.77321232     -0.81827161      0.93947428     -2.74598749      0.89192429
Si             46.21597710     58.21560233      9.40629823      14     -0.14213069      0.43454802     -0.15396171     -0.72869683      0.24607205      0.91657414
Si             48.49402375     60.30348329      9.29332876      14      0.61448209      1.05516782      0.93528009      0.42971331     -0.49454302      0.28926770
Si             51.62392788     60.04996485      9.17148905      14      0.28778783      0.21439594      0.12457344     -0.41091812     -2.46416757     -0.14826161
Si             53.84942124     57.94266694      9.20498851      14     -1.04196722     -0.34479710      0.19465144     -2.24514813      0.19460320     -0.12223268
Si             33.15716981     58.27998249      9.20378456      14      0.16713933     -0.75193408      0.94316197      0.36728135      1.35090079      0.60729361
Si             19.06821290     57.39740799      9.05490769      14     -1.31993305      0.40707761      0.68628169      1.31083512     -0.98760652      0.25194017
Si             36.15823809     57.48206642      9.19706235      14     -0.29359619     -0.37544410     -0.41591595     -1.58216730      0.87743431     -1.38829581
Si              5.76097680     56.44077442      9.07020081      14     -0.00000000     -1.01082145     -0.00000000     -0.00681071     -0.83409270     -0.03836982
Si             22.10546518     56.76478060      9.05942048      14      0.56951976      0.95497260     -0.31609884     -0.37009365     -1.12946990      0.76441911
Si             16.55783437     55.86681956      9.02419232      14     -0.19942223      0.78421501     -0.48585502     -2.52813129     -0.74658687     -0.16379914
Si             28.06151804     56.31027156      9.17352069      14      0.32826422      0.02086987     -1.44423348      1.09575739     -2.27470106      1.54315045
Si             31.15602953     55.99688979      9.29096224      14     -0.81715828      1.67396563      0.82455553     -0.50445247      1.22928860     -0.01960685
Si             58.27304671     55.36231284      9.25454454      14     -0.05391977     -0.29187086     -1.90156689      0.27609218     -0.98026883      0.48813531
Si             11.08401932     56.06617876      9.08844172      14      0.62808516      0.46482809      0.10282675     -1.08072833     -2.52163135      0.93200540
Si             42.94768530     55.47336286      9.28854861      14     -0.79327481      0.62020101     -1.00446952      0.76244761      0.81416638     -1.59765363
Si             45.92526418     55.19712653      9.34653817      14     -1.15246952      1.73621879      0.94682482     -0.23796628     -0.83478403     -0.78562000
Si              9.75935168     53.26390209      9.12790187      14      0.00000000      1.30788992      0.00000000      0.67291815      1.18027036      0.32111186
Si             47.91805177     52.91715647      9.40389056      14      0.00562982     -1.02120552      2.26823440      0.14300546     -0.28969042     -0.17748642
Si             53.42159229     54.94478472      9.32000944      14      1.06952294     -0.28214095     -0.33714433      0.45338065      0.16543429      0.20493827
Si              6.71397650     53.59646568      9.12609651      14     -0.00000000     -0.06658015     -0.00000000      0.29796892     -0.76528348      0.26500081
Si             50.87611157     53.41194870      9.46535269      14     -1.26146130      0.43223524      0.10240298     -1.33626796      1.35899217     -1.60732764
Si             23.43378587     53.91550518      9.21577952      14      1.34165553     -0.67071191      0.06111263      0.62840697      1.71078523     -0.00666825
Si             26.47858652     53.58455996      9.31267283      14      0.84444058      0.32922148     -0.49752529     -0.06569621      0.96313086     -0.58021179
Si             37.54404492     54.81954129      9.41389065      14     -1.32286061      0.80542899      0.55774602      0.47620390     -1.28734622     -1.36370202
Si             40.36930497     53.90327747      9.35596471      14     -0.05378398     -0.83691747      0.11178435      0.19755879     -0.83977378     -1.76585387
Si             32.51357607     53.33669219      9.37044593      14     -1.01187608      1.53419045     -0.20130435      0.04956165     -1.87144765      1.76451971
Si             35.49329187     52.62958305      9.45854045      14     -1.25342070      0.65046733     -0.93435976     -1.20705261      0.84087699      1.76538177
Si              5.21140683     50.96515621      9.02666122      14      0.00000000      0.10282830      0.00000000     -0.00739088      1.70272586      0.10487441
Si             16.41687471     52.75149351      9.09102439      14     -0.80108249     -0.15294094     -0.82601666     -0.34629107      1.85015456     -1.06656955
Si             14.47052207     50.55444715      9.12244377      14      1.22459262      0.49074257      0.96462816     -1.44445967      0.19967487      0.05732722
Si             55.99766155     53.33610148      9.27125297      14     -0.21387755      0.28425172      0.65332753     -0.61900240     -1.68763616     -0.53736328
Si             11.38552946     50.61722110      9.15735079      14      0.16665375     -1.11364001      0.50681960     -1.70919541      0.15665256     -0.48682822
Si             18.82386978     50.92849186      9.15098258      14      0.55112748      1.20690561      0.28617652     -0.29474969      1.10576195     -0.51487017
Si             56.59779411     50.28979095      9.28675697      14      0.85829067     -0.47778286     -0.40570516     -0.30469088      1.25946340      1.95544711
Si             21.83272873     51.26171901      9.27747470      14      0.59072306     -1.18910142     -0.61517230      0.69797843      0.76817798      0.89064385
Si             27.85603989     50.89549393      9.30117987      14     -1.25967546     -0.80208119     -0.26127282      0.05306375     -0.72982975      2.25381461
Si             30.84677298     50.61939686      9.47924249      14     -0.70030604     -0.16856267     -0.53682644      0.47498368      0.99032112     -0.37276782
Si             41.10066726     50.91432484      9.48722680      14     -0.01316430      0.00575657      0.40494793     -0.12163206      0.00865393     -1.76695640
Si             43.80732880     49.45111812      9.46565897      14     -0.20886176      0.52279043     -0.13440129     -1.25583063     -0.49246354     -1.06253497
Si             35.81204988     49.55970016      9.38766507      14     -1.97670117      0.39080385     -0.35308260      0.43010944      0.34334742      0.98750804
Si             46.84339179     50.01001221      9.32652421      14     -0.69036346      0.00219054      0.70797302      0.16099714     -0.61009123      3.41706561
Si             38.73456753     48.90131786      9.44591763      14     -1.05308166      0.24889122      0.11039211     -0.57654944     -0.76996661     -1.21481589
Si             49.37642255     48.55635751      9.22147463      14     -1.15646313     -1.28278602     -0.21792432      2.10157058      0.32684187     -1.22594904
Si             51.52764531     50.68369344      9.26954851      14     -0.14661651     -0.17021732      0.40949433     -0.02948166     -0.50444660     -0.56811990
Si              6.74940601     48.48212067      9.03190837      14     -0.00000000     -0.85957230     -0.00000000      0.26612902     -0.44676384     -0.00839803
Si              9.71624349     47.94663993      9.29527013      14      0.00000000      0.00671753      0.00000000      0.55387508      0.80599463      0.42632051
Si             23.17941534     48.48016093      9.54558420      14      0.38702244     -1.31443589     -0.42626391      1.90165169      1.85566579      0.28340930
Si             26.30237421     48.23362525      9.51973019      14      0.44731507      0.40817699      0.95616689      0.96091813      0.61081040     -0.04538703
Si             52.23592226     48.00296130      9.26802284      14      0.30142459      1.37206273      0.01375352     -0.29471850     -0.90945219     -1.18732388
Si             16.77383992     48.46814456      9.16544794      14     -0.38021106      0.11748564      0.25966892      0.00315285      0.96958998     -1.71630699
Si             33.01882261     48.39155164      9.50843095      14      0.89936587      0.30646232     -0.43385793     -0.28544638      0.38294628     -1.05628495
Si             55.07187913     47.68975130      9.21874440      14      1.12556269     -0.25391087     -1.93835764     -0.43148302     -0.47216860     -1.40982218
Si             10.63024341     39.07162578      9.00358065      14     -1.52544319     -0.53584783      1.69062414      2.42856077      1.49866374     -0.50598440
Si             40.50730563     46.48258133      9.12982767      14     -0.72364975      0.74833544     -0.42733895      0.64226220     -0.97134709     -0.67941912
Si             43.40688930     46.26965061      9.75870157      14     -0.20069280     -1.60008011     -0.00790342      1.28278465      0.25097755      1.07172305
O             190.78954860      9.32857857      5.16560749       8     -0.95053213     -0.14075672     -0.07736778     -0.70769859      0.42229610     -0.58259225
Si             28.04785937     45.59603013      9.55658983      14     -0.53530448     -0.17624507     -0.57739585      0.23391375     -0.01938701     -0.37360001
Si             57.79030275     46.43939515      8.95185088      14      0.18034735      0.94654588      0.09222095     -0.64836789     -1.10752021     -1.94525961
Si              7.81639946     37.90931328      9.16602832      14      0.00000000      0.20059421      0.00000000      1.20632765     -0.72771537     -0.70147479
Si             31.05467914     46.30493597      9.36287939      14      0.78238312      0.32985495      0.42543600     -0.18953868     -1.07592994     -0.34680962
Si             16.02749238     38.94259693      9.13401449      14      0.78073492     -0.05827558      0.56714448      0.83824869      0.33645536     -0.79308621
Si             18.75237436     37.83998306      9.21879482      14     -0.02576659      0.38170032      0.38445344      0.47687688     -1.18503642     -2.26889685
Si             21.71945879     38.64081600      8.95517030      14     -0.09252813      0.48172960      0.13581468     -0.48382094     -0.60702812      0.44713353
Si             49.65066627     38.44830157      8.30071919      14     -0.73021731     -0.25147165      1.01057955      0.03799026     -0.92458720      1.25017487
Si             13.33416342     37.76327257      9.25592509      14      0.54973789     -0.28482600      0.52737071     -0.76529739      4.08496891      0.38301114
Si             52.10061753     38.29379340      7.82761588      14      0.10181788     -1.74199485      0.29962853      0.26431714     -1.62392614      0.85628532
Si             42.08266981     36.11552960      8.71065626      14      0.72662710      0.89368399     -0.11398383      1.38040995      0.55999833     -1.08654462
Si             44.99881726     35.01919635      8.89685545      14      0.46249568     -0.79435291      0.54570193     -1.32085228     -0.30614692      1.13986436
Si             36.78548887     36.64468755      9.25384833      14     -1.30142310     -0.16441993      1.32224484     -0.13134601     -0.27340473     -0.16953992
Si             26.46357674     36.30905933      9.20509079      14      0.55402187     -0.89640623     -0.07555339     -0.07161208     -0.62600090      0.45054252
Si             34.19027074     34.80389793      9.39559156      14      1.58686872      0.11353031      1.26300343      2.31588937     -1.12736229      0.60249166
Si             23.51269009     36.39703064      9.24681597      14     -0.82975081      0.07176979     -0.55045117     -0.67111004     -0.26282278      1.63058547
Si             47.75107360     36.14903248      8.72807080      14     -1.64213829      0.38248972     -0.20591057      1.39505180     -0.26070983      1.51260406
Si             28.78204994     34.37350761      9.40244907      14     -0.47334831     -1.00964706      1.42607164      0.45997354      0.78098746      0.07034921
Si             31.36763361     36.02117312      9.67462668      14      0.90676949      1.59864085      0.54488200      1.49462994     -1.25947527     -1.02596104
Si              8.06630534     34.75187150      9.11314907      14     -0.00000000     -0.77798909     -0.00000000      0.06051726      0.97378144     -0.43825306
Si             16.08347792     33.34345982      9.27569177      14     -0.67469441     -0.36319747      0.78343293     -1.11951181     -0.14521456     -1.30819101
Si             39.38526072     34.98201891      9.11217936      14      0.78932004     -1.34583270      0.18279839     -0.24089678     -1.21883022      1.01814694
Si             52.89441141     35.47799861      8.41931542      14     -1.07154832     -0.37593763      0.74150657     -1.81018835      0.16298632      2.69841060
Si             13.32672108     34.72286215      9.26133153      14      1.04509052      0.25897873      0.03078125     -1.46671468      0.71148692     -0.57723573
Si             18.74804242     34.68905454      9.17938383      14     -0.55333838      1.34900221     -1.24857450      0.65454959      1.07026142     -0.60469792
Si             50.04189585     34.21662237      8.63795399      14     -0.58153007      0.56051413      1.05533406      1.55248960     -0.03803610      1.00342023
Si             21.66237623     33.87569104      9.20648245      14     -0.66846236      0.70574775      0.77521853     -0.07606769     -0.45321309      2.92792090
Si             54.65014057     33.01325914      8.55592267      14     -0.52256663     -0.66826702      0.67978549      0.00055114      0.10843050      0.83306184
Si              5.53868575     33.22487969      9.07767845      14      0.00000000      0.41459316      0.00000000      1.23601837      1.95227033      0.21793399
Si             10.69920601     33.20089354      9.17250378      14      0.22807801     -0.58750963      0.06453211     -0.06788797      1.08014390     -0.13764366
Si             57.55663742     33.58773897      8.40189956      14      0.23231464     -0.64175721     -1.00926634      0.41425683     -0.01435629      1.34204816
Si             34.26349505     31.70657908      9.48027532      14     -2.02088210     -0.56703211      1.50115306      0.74894085     -0.24606635     -1.25681752
Si             37.00378422     30.09112878      9.33662362      14      0.69408386      0.54667534     -0.24504645     -1.38068315      0.83819503      0.33399150
Si             39.46593577     31.85912446      9.21467859      14      0.04924221      0.57729228     -1.22804924      1.90432854      2.23500158      1.04239564
Si             16.65590267     30.40152274      9.30051932      14      0.62148154      0.01013110     -1.29188462     -2.87081314     -1.04716777     -0.18719801
Si             31.64380729     30.14029029      9.41138497      14     -0.39774607      0.06730003     -1.24210960     -0.61370365     -0.65955572     -0.36651726
Si             22.20518643     30.91091500      9.39516552      14     -0.58093471     -0.02343336      0.40125997     -1.77295902      0.22015800     -2.03133379
Si             24.12225922     28.65158208      9.41857893      14      0.79858370      0.88390266      1.17168355      0.53718279      0.10442744     -0.42014632
Si             28.82810822     31.43642624      9.35777160      14     -0.38662157     -0.86450901      0.43912131     -0.39055402      0.14237987      2.55642709
Si             42.18763588     30.48203409      9.07129807      14     -0.21851941      1.05957048     -1.36649227     -0.32450437      0.87997358      0.29626295