7919
OrigWidth=248.77490428 OrigHeight=67.43324632 cell_origin="-131.88745214    -41.21662316     -9.93808612" strain=0.10000000 is_cracked=F n_efield_old=3 energy=-151559.11809377 cutoff=10.58354498 nneightol=1.20000000 pbc="T T T" Lattice="263.77490428       0.00000000       0.00000000       0.00000000      82.43324632       0.00000000       0.00000000       0.00000000      19.87617225" Properties=species:S:1:pos:R:3:Z:I:1:dipoles:R:3:clamp_mask:I:1:pos_orig:R:3:orig_index:I:1:map_shift:I:3:n_neighb:I:1:force:R:3:charge:R:1:fixdip:L:1:efield:R:3:efield_old1:R:3:efield_old2:R:3:efield_old3:R:3
Si             35.53754689     78.08771936      8.92152971      14      0.00000000      0.00000000      0.00000000       1     35.53659441     78.08586401      8.92185886       0       0      -1       0      89     -0.00000150      0.00053284     -0.00019395      2.85911880    F     -0.80919237     -4.19328551     -1.03245478      0.20062930     -2.43696664     -0.16009903      0.20062930     -2.43696664     -0.16009903      0.20060363     -2.43697494     -0.16008343
Si             32.48533006     78.29253820      8.92878184      14      0.00000000      0.00000000      0.00000000       1     32.48424600     78.29318823      8.92875677       1       0      -1       0      88     -0.00068898     -0.00093295     -0.00000534      2.85911880    F      0.02979238     -3.88865503     -1.11113875     -0.61776843     -1.98739377     -0.24363163     -0.61776843     -1.98739377     -0.24363163     -0.61776551     -1.98741522     -0.24362201
Si             28.04547224     75.05904805      9.02330859      14      0.00000000      0.00000000      0.00000000       1     28.04553967     75.05870265      9.02253423       2       0      -1       0     122     -0.00113480     -0.00047684      0.00009988      2.85911880    F      0.35928635     -1.32596995     -1.36519864      0.32750289     -1.51277274     -1.26858898      0.32750289     -1.51277274     -1.26858898      0.32753052     -1.51276004     -1.26861466
Si             25.58818635     76.71923493      8.94727208      14      0.00000000      0.00000000      0.00000000       1     25.58711782     76.71821797      8.94652763       3       0      -1       0     101     -0.00053763      0.00032127      0.00045299      2.85911880    F      0.16198367     -3.40449272     -0.63438300      0.18022075     -1.90435220     -0.02213106      0.18022075     -1.90435220     -0.02213106      0.18018576     -1.90436981     -0.02215315
Si             31.01414933     75.72478728      9.01493385      14      0.00000000      0.00000000      0.00000000       1     31.01291654     75.72579818      9.01475943       4       0      -1       0     103     -0.00108811     -0.00098548      0.00012042      2.85911880    F      0.00189227     -1.29562285     -1.37951976     -0.00642728     -1.45939618     -1.44145718     -0.00642728     -1.45939618     -1.44145718     -0.00646171     -1.45941560     -1.44145766
Si             42.47166741     76.38517456      8.97231059      14      0.00000000      0.00000000      0.00000000       1     42.47238052     76.38311920      8.97191427       5       0      -1       0     101     -0.00056396      0.00093477      0.00016495      2.85911880    F     -0.51958411     -3.60617165     -0.87593002     -0.91122443     -2.01805180     -0.35485168     -0.91122443     -2.01805180     -0.35485168     -0.91116811     -2.01810205     -0.35485524
Si             45.49000443     76.52539550      8.98879576      14      0.00000000      0.00000000      0.00000000       1     45.49063193     76.52392481      8.98829867       6       0      -1       0      99     -0.00033865      0.00037034      0.00030334      2.85911880    F      0.83587599     -3.17142933     -0.88957222      0.98591662     -1.64769853     -0.33665570      0.98591662     -1.64769853     -0.33665570      0.98588373     -1.64776254     -0.33664310
Si             55.16055126     77.36478025      9.03885589      14      0.00000000      0.00000000      0.00000000       1     55.16258772     77.36044112      9.03877001       7       0      -1       0      97     -0.00039597      0.00206336      0.00008128      2.85911880    F      0.89332872     -3.74643177     -0.90485064      1.17833253     -1.84707741     -0.38950294      1.17833253     -1.84707741     -0.38950294      1.17834153     -1.84710897     -0.38949908
Si             60.09701147     74.96435596      9.14365617      14      0.00000000      0.00000000      0.00000000       0     60.09703248     74.96797250      9.14353548       8       0      -1       0     116      0.00126803     -0.00073784      0.00002621      2.85911880    F     -0.11005383     -1.31164636     -1.34298739      0.00516040     -0.89413413     -1.03470113      0.00516040     -0.89413413     -1.03470113      0.00516839     -0.89413103     -1.03470380
Si              8.64491955     74.07155313      9.00933799      14      0.00000000      0.00000000      0.00000000       1      8.49810318     73.98300535      9.09157714       9       0      -1       0      72      0.08448924      0.05610307     -0.04911865      2.85911880    F      3.93844923     -2.48540846     -1.25950347      1.26213963     -2.00651794     -0.27395806      1.26213963     -2.00651794     -0.27395806      1.26266805     -2.00600032     -0.27381038
Si             10.55536768     76.43905574      9.00476029      14      0.00000000      0.00000000      0.00000000       1     10.43696033     76.16243939      9.01321487      10       0      -1       0      65      0.07102465      0.16544427     -0.00473194      2.85911880    F      0.99303323     -3.07168559     -2.13722197      0.33217004     -0.82856839     -0.71363841      0.33217004     -0.82856839     -0.71363841      0.33235030     -0.82869656     -0.71359738
Si             13.53459015     75.95943966      9.00583822      14      0.00000000      0.00000000      0.00000000       1     13.42722591     75.83866185      9.00227159      11       0      -1       0      79      0.06426454      0.07143296      0.00215727      2.85911880    F      0.75581989     -3.55858537     -1.05621413      1.26046813     -1.73866271     -0.42668292      1.26046813     -1.73866271     -0.42668292      1.26062252     -1.73834245     -0.42669504
Si             50.55755838     74.40362187      9.06642251      14      0.00000000      0.00000000      0.00000000       1     50.55698851     74.39912318      9.06616357      12       0      -1       0     118      0.00121182      0.00296230      0.00015243      2.85911880    F      0.05169581     -1.36866117     -1.37297226      0.05949059     -1.70299040     -1.43411478      0.05949059     -1.70299040     -1.43411478      0.05946410     -1.70300606     -1.43411656
Si             52.18388092     76.89038194      9.02856998      14      0.00000000      0.00000000      0.00000000       1     52.18679921     76.88382374      9.02847669      13       0      -1       0      95     -0.00122088      0.00443632      0.00001833      2.85911880    F     -0.03566842     -3.32478539     -0.86998502     -0.59399943     -1.82077736     -0.34907051     -0.59399943     -1.82077736     -0.34907051     -0.59398283     -1.82074243     -0.34907589
Si             20.10704640     75.40917736      8.97432562      14      0.00000000      0.00000000      0.00000000       1     20.10527193     75.41269047      8.97317891      14       0      -1       0     101     -0.00058840     -0.00335485      0.00083943      2.85911880    F      0.56926101     -2.75396239     -0.50768621      0.27077040     -1.68128290     -0.05521877      0.27077040     -1.68128290     -0.05521877      0.27091018     -1.68137328     -0.05526098
Si             38.09738794     73.07934857      9.04165736      14      0.00000000      0.00000000      0.00000000       0     38.09691565     73.07887363      9.04160319      15       0      -1       0     133     -0.00026416     -0.00097217     -0.00002098      2.85911880    F     -0.26884362     -0.65370132     -1.26597785     -0.36951958     -0.98927466     -1.14276286     -0.36951958     -0.98927466     -1.14276286     -0.36948540     -0.98932517     -1.14278896
Si             15.11242776     73.44625553      9.05924572      14      0.00000000      0.00000000      0.00000000       1     15.11802524     73.41827153      9.06046882      16       0      -1       0     109     -0.00608867      0.01404868     -0.00050954      2.85911880    F     -0.03013160     -1.30736190     -1.43784323      0.19718657     -1.58939838     -1.41395819      0.19718657     -1.58939838     -1.41395819      0.19738999     -1.58957562     -1.41406374
Si             23.06524016     75.15506950      9.04234315      14      0.00000000      0.00000000      0.00000000       1     23.06345026     75.15794598      9.04160086      17       0      -1       0     104     -0.00010033     -0.00202700      0.00050345      2.85911880    F      0.67543078     -1.85686472     -1.41705780      0.58422864     -1.66277468     -1.21472994      0.58422864     -1.66277468     -1.21472994      0.58419111     -1.66284424     -1.21471852
Si             33.28688281     73.76965511      9.03760289      14      0.00000000      0.00000000      0.00000000       0     33.28439522     73.76955919      9.03741045      18       0      -1       0     132     -0.00013356     -0.00050933      0.00002217      2.85911880    F      0.48579457     -0.42049141     -1.20125601      0.51570392     -0.92478112     -0.79160987      0.51570392     -0.92478112     -0.79160987      0.51572432     -0.92472528     -0.79158713
Si             35.95493639     75.23892897      9.02682757      14      0.00000000      0.00000000      0.00000000       1     35.95324481     75.23736015      9.02692694      19       0      -1       0     107      0.00081323      0.00044518     -0.00004647      2.85911880    F     -0.64150223     -1.57798070     -1.07268357     -0.61965258     -1.67873820     -1.05773889     -0.61965258     -1.67873820     -1.05773889     -0.61967509     -1.67872550     -1.05773909
Si             41.03547954     73.83922534      9.04266440      14      0.00000000      0.00000000      0.00000000       1     41.03518096     73.83724362      9.04239355      20       0      -1       0     121     -0.00040248      0.00160807      0.00034749      2.85911880    F      0.05898797     -1.61174797     -1.06235414     -0.01273028     -1.73888632     -1.28585511     -0.01273028     -1.73888632     -1.28585511     -0.01280588     -1.73891766     -1.28591701
Si             47.49001014     74.35126642      9.05205939      14      0.00000000      0.00000000      0.00000000       1     47.48977580     74.34895449      9.05173779      21       0      -1       0     118      0.00095414      0.00160949      0.00033013      2.85911880    F      0.12778244     -1.59298058     -1.29403286      0.17732228     -1.82938090     -1.37839600      0.17732228     -1.82938090     -1.37839600      0.17738647     -1.82940557     -1.37840015
Si             52.45824535     72.07430936      9.08650451      14      0.00000000      0.00000000      0.00000000       0     52.45566066     72.06871589      9.08626669      22       0      -1       0     144      0.00173616      0.00037017      0.00006050      2.85911880    F      0.60584721     -0.34675567     -1.19188609      0.68781793     -0.88389563     -0.78987094      0.68781793     -0.88389563     -0.78987094      0.68788820     -0.88375259     -0.78980111
Si             24.09827612     72.27239087      9.04557356      14      0.00000000      0.00000000      0.00000000       0     24.10209893     72.27743531      9.04401103      23       0      -1       0     131     -0.00231842     -0.00083153      0.00021367      2.85911880    F      0.15400741     -0.69440926     -1.17192923      0.27657303     -1.08693815     -1.07257311      0.27657303     -1.08693815     -1.07257311      0.27662405     -1.08690766     -1.07263645
Si             18.16600177     73.15673572      9.05569908      14      0.00000000      0.00000000      0.00000000       1     18.17062414     73.15480622      9.05438257      24       0      -1       0     124     -0.00527423      0.00072770      0.00096127      2.85911880    F      0.23762100     -1.37266908     -1.36154305      0.23679750     -1.62563737     -1.22906497      0.23679750     -1.62563737     -1.22906497      0.23658450     -1.62567998     -1.22918092
Si             55.42161181     72.55616301      9.10409258      14      0.00000000      0.00000000      0.00000000       0     55.41741426     72.55436553      9.10385690      25       0      -1       0     146      0.00263337     -0.00119383      0.00008354      2.85911880    F     -0.63536041     -0.83805149     -1.16362993     -0.35936827     -1.25828585     -0.80190920     -0.35936827     -1.25828585     -0.80190920     -0.35944671     -1.25825421     -0.80188342
Si             27.16607088     72.15043072      9.04578399      14      0.00000000      0.00000000      0.00000000       0     27.16978399     72.15011158      9.04483202      26       0      -1       0     133     -0.00249645     -0.00065899      0.00013285      2.85911880    F     -0.18673859     -0.49460021     -1.15090604     -0.02172548     -0.76850881     -1.10142113     -0.02172548     -0.76850881     -1.10142113     -0.02175414     -0.76845836     -1.10141890
Si             46.07168502     71.68028451      9.06106746      14      0.00000000      0.00000000      0.00000000       0     46.06972090     71.67830060      9.06060277      27       0      -1       0     143     -0.00015378      0.00081334      0.00000741      2.85911880    F     -0.41347914     -0.89201950     -1.05138616     -0.23662866     -1.45842013     -0.99113474     -0.23662866     -1.45842013     -0.99113474     -0.23662873     -1.45841036     -0.99113015
Si             43.01754717     71.54199429      9.05656904      14      0.00000000      0.00000000      0.00000000       0     43.01564721     71.53777988      9.05619962      28       0      -1       0     143     -0.00002986      0.00081573     -0.00005810      2.85911880    F      0.06799846     -0.56709287     -1.08605582     -0.23575034     -1.16835637     -0.85401671     -0.23575034     -1.16835637     -0.85401671     -0.23569183     -1.16837076     -0.85404518
Si             10.09515677     71.45737741      9.08470564      14      0.00000000      0.00000000      0.00000000       0     10.13993168     71.42957039      9.09473593      29       0      -1       0      95     -0.00804800      0.00061247      0.00014590      2.85911880    F      0.90782097     -0.94850717     -1.39370009      1.07445374     -1.44779582     -1.46807460      1.07445374     -1.44779582     -1.46807460      1.07399136     -1.44816166     -1.46809459
Si             13.12764354     71.10936066      9.08246668      14      0.00000000      0.00000000      0.00000000       0     13.17710262     71.04958159      9.08024477      30       0      -1       0     116     -0.00800748      0.00117939      0.00020957      2.85911880    F      0.40440412     -0.78718852     -1.31582164      0.55457667     -1.37501724     -0.97512706      0.55457667     -1.37501724     -0.97512706      0.55462203     -1.37494325     -0.97529454
Si             19.32364061     70.35231538      9.06436925      14      0.00000000      0.00000000      0.00000000       0     19.33548495     70.35243784      9.06216709      31       0      -1       0     146     -0.00256714     -0.00015067      0.00046109      2.85911880    F     -0.09487810     -0.61207947     -1.14286697     -0.04273750     -0.86262542     -0.96689763     -0.04273750     -0.86262542     -0.96689763     -0.04258267     -0.86287181     -0.96701762
Si             22.32262184     69.79599311      9.06231074      14      0.00000000      0.00000000      0.00000000       0     22.33410802     69.79633377      9.06001908      32       0      -1       0     148     -0.00280839     -0.00038435      0.00025742      2.85911880    F      0.25080742     -0.10959567     -1.15032030      0.28404052     -0.42959729     -1.01877572      0.28404052     -0.42959729     -1.01877572      0.28398506     -0.42962508     -1.01885632
Si             28.59736305     69.47866952      9.05414781      14      0.00000000      0.00000000      0.00000000       0     28.60193053     69.47823896      9.05295169      33       0      -1       0     156     -0.00265530     -0.00093927      0.00017498      2.85911880    F      0.05487798     -0.45379091     -1.09067530      0.00494982     -0.53434248     -1.00308735      0.00494982     -0.53434248     -1.00308735      0.00501328     -0.53435309     -1.00314358
Si             49.43852008     67.47560679      9.07256619      14      0.00000000      0.00000000      0.00000000       0     49.43716328     67.46886283      9.07249170      34       0      -1       0     159     -0.00031497      0.00180992      0.00005556      2.85911880    F     -0.05617343     -0.02267322     -0.89372945      0.12959395     -0.22848938     -0.93581690      0.12959395     -0.22848938     -0.93581690      0.12957808     -0.22846840     -0.93585634
Si              5.80540870     67.80467813      9.01246970      14      0.00000000      0.00000000      0.00000000       0      5.75007778     67.76990578      9.11629918      35       0      -1       0      84     -0.00511282     -0.00496053      0.00006267      2.85911880    F      4.03708367     -0.96634135     -0.98337706      2.35873495     -0.34825550      0.06128736      2.35873495     -0.34825550      0.06128736      2.35890613     -0.34814355      0.06125665
Si             31.56676007     68.76747584      9.05425386      14      0.00000000      0.00000000      0.00000000       0     31.57041592     68.76679161      9.05361472      36       0      -1       0     154     -0.00230290     -0.00020508      0.00005911      2.85911880    F     -0.23924081     -0.27465051     -1.05911059     -0.17874856     -0.40240495     -1.05488931     -0.17874856     -0.40240495     -1.05488931     -0.17878067     -0.40240705     -1.05491342
Si             33.86084233     70.77086352      9.04549125      14      0.00000000      0.00000000      0.00000000       0     33.86196043     70.77175676      9.04515811      37       0      -1       0     148     -0.00142512     -0.00085472      0.00001002      2.85911880    F     -0.01196161     -0.33285279     -1.13101027     -0.08291479     -0.45515728     -1.15887992     -0.08291479     -0.45515728     -1.15887992     -0.08293240     -0.45515807     -1.15892754
Si              8.44590530     68.90507550      9.10331315      14      0.00000000      0.00000000      0.00000000       0      8.50167899     68.90541590      9.10100522      38       0      -1       0     105     -0.00575610     -0.00057642      0.00007932      2.85911880    F      0.94765249     -0.95955840     -1.31156257      0.72265444     -1.08532672     -1.00028384      0.72265444     -1.08532672     -1.00028384      0.72277290     -1.08530382     -1.00021738
Si             56.40206315     69.69541816      9.10383653      14      0.00000000      0.00000000      0.00000000       0     56.39617125     69.69396368      9.10393134      39       0      -1       0     158      0.00254033     -0.00150775      0.00001142      2.85911880    F      0.59347856     -0.54553011     -0.87260915      0.46409649     -0.65621184     -0.83086765      0.46409649     -0.65621184     -0.83086765      0.46420877     -0.65603533     -0.83080673
Si             58.87598755     68.26700440      9.11518494      14      0.00000000      0.00000000      0.00000000       0     58.87822100     68.28755932      9.11498704      40       0      -1       0     163      0.00160966     -0.00528724      0.00006899      2.85911880    F     -0.06936706     -0.10180117     -0.78959530     -0.17306008     -0.11815505     -0.38158229     -0.17306008     -0.11815504     -0.38158229     -0.17314650     -0.11822653     -0.38154796
Si             41.80532783     68.74695689      9.05577270      14      0.00000000      0.00000000      0.00000000       0     41.80549912     68.74124785      9.05550348      41       0      -1       0     161     -0.00111092      0.00121213     -0.00009751      2.85911880    F      0.09273835     -0.30657425     -1.01660919      0.32089103     -0.46653974     -0.89626152      0.32089103     -0.46653974     -0.89626152      0.32089299     -0.46648721     -0.89626861
Si             38.85648737     67.99297689      9.05490668      14      0.00000000      0.00000000      0.00000000       0     38.85502599     67.99053002      9.05497178      42       0      -1       0     151     -0.00066498     -0.00047532     -0.00010276      2.85911880    F      0.44578978     -0.21735833     -1.02718335      0.34765568     -0.36088022     -1.02363101      0.34765568     -0.36088022     -1.02363101      0.34768192     -0.36094060     -1.02365784
Si             51.97157723     69.06921250      9.07774513      14      0.00000000      0.00000000      0.00000000       0     51.97223848     69.06236205      9.07746869      43       0      -1       0     169      0.00000955      0.00058737      0.00009227      2.85911880    F     -0.14885584     -0.74835597     -1.04702370     -0.05981770     -0.57842545     -0.91299842     -0.05981770     -0.57842545     -0.91299842     -0.05985145     -0.57841012     -0.91300835
Si             14.29272995     68.28016362      9.08749375      14      0.00000000      0.00000000      0.00000000       0     14.36194353     68.23407111      9.08415905      44       0      -1       0     150     -0.00749326      0.00122941      0.00057423      2.85911880    F      0.25059509     -0.34040375     -1.18826798      0.46516823     -0.44718094     -1.04633969      0.46516823     -0.44718094     -1.04633969      0.46504487     -0.44725762     -1.04641416
Si             17.34709096     68.04480926      9.07973414      14      0.00000000      0.00000000      0.00000000       0     17.41010106     68.01020687      9.07648837      45       0      -1       0     147     -0.00703431      0.00363393      0.00053575      2.85911880    F      0.38023122     -0.17833688     -1.10256257      0.41892682     -0.34881612     -0.96472820      0.41892682     -0.34881612     -0.96472820      0.41883919     -0.34862499     -0.96472121
Si             46.72042228     68.77748666      9.06476566      14      0.00000000      0.00000000      0.00000000       0     46.72024053     68.77545737      9.06436105      46       0      -1       0     168     -0.00065914      0.00083585      0.00000820      2.85911880    F     -0.10977675     -0.40075729     -0.89369021     -0.12330333     -0.35403852     -0.88429610     -0.12330333     -0.35403852     -0.88429610     -0.12333367     -0.35407237     -0.88430022
Si             23.81003744     67.11397794      9.07078872      14      0.00000000      0.00000000      0.00000000       0     23.82304617     67.11651163      9.06778033      47       0      -1       0     162     -0.00362894     -0.00098115      0.00007451      2.85911880    F     -0.15540178     -0.20142151     -1.07593044     -0.08562246     -0.25457840     -1.08843991     -0.08562246     -0.25457840     -1.08843991     -0.08547729     -0.25468854     -1.08854076
Si             26.86492809     66.93584489      9.06627521      14      0.00000000      0.00000000      0.00000000       0     26.87579246     66.93204047      9.06456385      48       0      -1       0     159     -0.00325068     -0.00073343      0.00010238      2.85911880    F      0.21699075      0.06737670     -1.09878349      0.18842379     -0.17006788     -0.98306997      0.18842379     -0.17006788     -0.98306997      0.18837489     -0.17013014     -0.98312480
Si             44.24971860     67.03208266      9.05945645      14      0.00000000      0.00000000      0.00000000       0     44.25132184     67.02716080      9.05908188      49       0      -1       0     172     -0.00102720      0.00124900     -0.00004863      2.85911880    F      0.12753299      0.02430814     -0.96174901      0.02144529     -0.10770431     -0.73885112      0.02144529     -0.10770431     -0.73885112      0.02145174     -0.10769615     -0.73882563
Si             54.46865273     67.32866666      9.08852864      14      0.00000000      0.00000000      0.00000000       0     54.47009410     67.32166862      9.08818888      50       0      -1       0     182     -0.00038302      0.00059558      0.00008719      2.85911880    F     -0.32543300      0.54383836     -1.08280499     -0.33941893      0.38366710     -0.81244516     -0.33941893      0.38366710     -0.81244516     -0.33945587      0.38373734     -0.81241087
Si              9.58274030     66.05256464      9.10666262      14      0.00000000      0.00000000      0.00000000       0      9.63773123     66.08533052      9.10275499      51       0      -1       0     122     -0.00376543      0.00033820      0.00027940      2.85911880    F      0.57212344      0.43591198     -1.14848221      0.64750584      0.09411733     -1.04312695      0.64750584      0.09411733     -1.04312695      0.64755658      0.09408968     -1.04305406
Si             12.58389570     65.73693082      9.09799886      14      0.00000000      0.00000000      0.00000000       0     12.61712201     65.72561680      9.09567406      52       0      -1       0     156     -0.00366029     -0.00168759      0.00035534      2.85911880    F      0.44875759     -0.21253191     -1.14872447      0.55856144     -0.17908223     -1.16270538      0.55856144     -0.17908223     -1.16270538      0.55877910     -0.17920076     -1.16274871
Si             58.91144865     65.41727803      9.10765844      14      0.00000000      0.00000000      0.00000000       0     58.91355232     65.44105712      9.10706447      53       0      -1       0     167      0.00123605     -0.00564551      0.00013302      2.85911880    F      0.24639205      0.10095676     -0.63091084      0.17834174      0.27665947     -0.72779659      0.17834174      0.27665947     -0.72779659      0.17864317      0.27638757     -0.72782253
Si             31.67048611     65.73167082      9.06378889      14      0.00000000      0.00000000      0.00000000       0     31.67586703     65.73158874      9.06357657      54       0      -1       0     171     -0.00200447     -0.00026459     -0.00009373      2.85911880    F     -0.20437784     -0.16346016     -1.03143603     -0.16720246     -0.25426521     -0.89634984     -0.16720246     -0.25426521     -0.89634984     -0.16719035     -0.25428781     -0.89636728
Si             18.81840172     65.36716009      9.08831650      14      0.00000000      0.00000000      0.00000000       0     18.87266747     65.33231262      9.08370439      55       0      -1       0     158     -0.00782972      0.00296531     -0.00004262      2.85911880    F     -0.08959996     -0.26294763     -1.03007878     -0.03967043     -0.25797202     -0.96783672     -0.03967043     -0.25797202     -0.96783672     -0.03998029     -0.25777163     -0.96790528
Si             21.83060880     64.80757052      9.08409718      14      0.00000000      0.00000000      0.00000000       0     21.88825360     64.77385492      9.07966222      56       0      -1       0     159     -0.00796645      0.00216897     -0.00031670      2.85911880    F     -0.17986152     -0.13062702     -1.01774524     -0.24946603     -0.27615643     -0.96075352     -0.24946603     -0.27615643     -0.96075352     -0.24949213     -0.27630446     -0.96072349
Si             28.79998985     64.58668293      9.07155192      14      0.00000000      0.00000000      0.00000000       0     28.80757575     64.58275657      9.07098611      57       0      -1       0     161     -0.00208700     -0.00031343     -0.00009787      2.85911880    F      0.30891784      0.06244851     -1.08370919      0.18866449      0.03429230     -0.89018678      0.18866449      0.03429230     -0.89018678      0.18865437      0.03435735     -0.89022449
Si             38.89758509     64.96681598      9.06094800      14      0.00000000      0.00000000      0.00000000       0     38.89448880     64.96518336      9.06179140      58       0      -1       0     166     -0.00072777     -0.00094309     -0.00027490      2.85911880    F      0.07526726     -0.28801578     -1.00938910      0.10785478     -0.35438944     -0.93536899      0.10785478     -0.35438944     -0.93536899      0.10794025     -0.35436684     -0.93535280
Si             57.20598285     62.95344975      9.09052147      14      0.00000000      0.00000000      0.00000000       0     57.20972792     62.97903544      9.08985872      59       0      -1       0     171     -0.00152447     -0.00409440      0.00029495      2.85911880    F      0.06375767      0.56244902     -0.85857820     -0.17995883      0.39256799     -1.01659981     -0.17995883      0.39256799     -1.01659981     -0.18039204      0.39227150     -1.01665365
Si             33.63114681     63.45781319      9.06872606      14      0.00000000      0.00000000      0.00000000       0     33.62996272     63.45164906      9.06978738      60       0      -1       0     149     -0.00101555      0.00075937     -0.00020055      2.85911880    F     -0.34574808     -0.27829610     -1.00213759     -0.20116660     -0.14382833     -0.94239027     -0.20116660     -0.14382833     -0.94239027     -0.20111675     -0.14383511     -0.94242110
Si             41.41941459     63.29908021      9.06241629      14      0.00000000      0.00000000      0.00000000       0     41.41998617     63.30509741      9.06367359      61       0      -1       0     170     -0.00038820     -0.00136530     -0.00022444      2.85911880    F     -0.09561393     -0.35473239     -0.96070343     -0.10875063     -0.27172610     -0.89917377     -0.10875063     -0.27172610     -0.89917377     -0.10875695     -0.27178461     -0.89909306