7898
energy=-151002.13589656 time=2010.00000000 temperature=288.89371074 cutoff=10.58354498 nneightol=1.20000000 pbc="T T T" Lattice="263.80541928       0.00000000       0.00000000       0.00000000      82.43324632       0.00000000       0.00000000       0.00000000      19.87617225" Properties=species:S:1:pos:R:3:Z:I:1:momenta:R:3:force:R:3
Si             26.34062220     78.24787922      8.76501956      14      0.00901392     -0.11833051      0.26177908     -0.14915400      0.55012736     -1.61528622
Si             23.30414816     78.44488468      8.66762895      14      0.91911979      1.75181597     -0.08791541      1.22999731      2.34399220     -0.88256102
Si             18.77240960     75.08779387      9.03961112      14     -0.20216367      0.38457558      1.20655451     -0.75957271     -0.38658058     -1.27539762
Si             16.24645455     76.54087935      8.93798609      14      0.06701307     -0.53548492      0.83077267     -0.16413457      1.41422349     -0.19894044
Si             21.69580928     75.96323962      8.86943686      14      0.92997972     -0.10330734      0.11417500      0.24548470     -0.87562676     -0.43205268
Si             33.17896772     76.54373549      9.06538738      14     -0.78359461      0.52669360      0.72088316     -0.73497252      0.44173464     -2.40124458
Si             36.20022542     76.63980367      8.91234284      14     -0.38760978     -0.28613033      0.35569260      0.71571289      0.25708802      0.73126852
Si             45.91460636     77.51055536      9.06375095      14     -0.17190562      0.42499508      0.63193724     -0.16143213     -1.37937469     -0.16316762
Si             50.88444866     75.15367786      8.98984506      14     -0.32993330      0.29939883     -1.55958502      0.31736716      1.32286928      1.00808821
Si             41.26667072     74.58504282      8.99047291      14      0.43174973      1.09167792      0.42909287     -0.38452458     -1.49077100     -0.95789994
Si             42.89239755     76.99786043      8.94356753      14     -0.16116329     -1.97299243      0.31750829      2.63739615      0.64781300      1.86437112
Si             10.75151328     75.45001837      9.04260441      14      1.18120305     -0.32695185      1.23000262      0.86995395      0.75656992      1.00602916
Si             28.77968829     73.23109567      8.96981486      14     -0.04103290      0.66749091      0.70781135      0.75991651     -2.30048170     -1.08790427
Si             13.60063474     75.08460043      9.11373169      14     -0.20769808      0.67352198      0.35363433      2.20091360     -1.52280933     -0.23399660
Si             24.06968994     74.04052659      8.99514213      14     -0.95899331     -0.25247808     -0.30670756     -0.47362917     -1.19839601     -1.34093331
Si             26.73281295     75.27637371      8.93357015      14     -0.54721571     -0.71326993      0.17968673     -1.21831287      1.55164567     -0.17905192
Si             31.73111970     74.03734456      9.08194205      14     -0.56588960     -0.15785712      0.73295259      0.85930577      0.80069336     -0.35102724
Si             38.21966949     74.54852615      9.04947987      14     -0.57799387      0.05230269     -1.42171648     -0.30583055      1.31804773      1.06078619
Si             43.23009774     72.30033692      8.92342529      14     -0.65289635     -0.09741351      1.77038996     -0.02207813      0.64639197      0.03910111
Si             14.82365088     72.26145081      9.18549609      14     -0.90159562      0.09543750      0.76231802     -1.81975456     -0.20060118     -0.09120262
Si              8.88028230     73.12209245      9.05438257      14      0.00000000      0.06611362      0.00000000      3.73878939     -0.03467673     -0.73850905
Si             46.21697861     72.63052601      8.96846773      14      0.10294085      0.74816750     -0.24622317      1.52943048      2.06482193      0.10481420
Si             17.93186595     72.19954498      9.07114789      14      0.28727453     -0.31909785     -1.68802360     -1.89730826      0.19970174      0.27529864
Si             36.79565746     71.95792531      9.20365960      14     -0.79938881      0.18738398      0.35945892      0.17432841     -1.37524586      1.51598988
Si             33.73244522     71.66454005      9.31584051      14      0.39531094      0.84542924      0.34051748     -0.62882992      1.43129341      0.51408078
Si             10.05937552     70.29920399      9.04328963      14      0.83499039     -0.34866818      0.72489756      0.26143276      1.22369851      0.99519548
Si             13.08910074     69.72156087      9.01660891      14     -1.53527938     -1.24091248     -0.26100324     -1.57007164      0.05109583      0.27080706
Si             19.33834284     69.47368950      9.09727760      14      0.36829704     -0.35321421     -0.90990522      0.08248589      1.58235921     -1.22688529
Si             40.25628122     67.74654145      9.18387913      14      0.94887589     -1.88045609      0.19333109      0.68919634      0.47556821     -1.30356674
Si             22.26840922     68.98202414      9.02831281      14      0.28933078     -0.06751188      0.25267578      1.81499758     -1.60759304      0.17736244
Si             24.57580884     70.99075877      9.03450577      14      0.55836812      0.25585490      0.97693543      1.43539940      0.01531549     -0.76792370
Si             47.31114345     69.88317267      9.05770993      14      0.33036192      0.03973781      0.42069903     -0.05155644     -1.68583259      0.05296234
Si             49.71162930     68.32835942      9.13157842      14     -0.50726230      0.81033834     -1.23932767     -0.02273003      0.81628616     -0.31928579
Si             32.48373809     68.91444799      9.36804142      14      1.06465968     -1.28852083      0.01140787     -0.00041948     -1.78049165     -0.95793874
Si             29.50245891     68.02404991      9.20763118      14     -1.60590952      1.65564511     -0.18887961     -0.77505658      0.09792815     -2.07520039
Si             42.71164234     69.32204054      9.11878683      14     -0.46800999      0.94255410      0.93437717      1.02752015      1.43227543     -2.56086190
Si              8.11975922     68.00718329      9.07648837      14      0.00000000      1.30142707      0.00000000      4.09579657     -0.53991071     -1.47145855
Si             37.56130459     69.09028444      9.17814210      14      1.47531733      0.90069318     -1.35767928     -1.74531728     -0.54500293     -0.99956372
Si             14.49897638     67.09215223      8.98792346      14      0.40840804      0.18458780      0.93149185     -0.44728882     -1.25977289      1.36794420
Si             17.52260113     67.00745468      8.99963774      14     -0.12370452     -0.10030048     -0.02112752      0.38919597     -1.45335539      0.47438286
Si             35.10826148     67.25638619      9.20673034      14     -0.10107882     -0.55612407      1.53087452     -1.24336492      0.30048737      0.98269032
Si             45.25053985     67.57170139      9.07257367      14     -0.63246862      0.41653280     -1.97348732      0.38980761      0.41573471      0.11368167
Si             49.56507329     65.46632933      9.09605565      14      0.71424474     -0.39199725     -0.11776564      1.22485797      2.63358433     -0.61314770
Si             22.39223115     65.94809053      9.02627382      14     -0.65049111      1.19786890     -0.20075251     -2.31096481     -0.64792839      0.98156856
Si              9.58232563     65.33383007      9.08370439      14      0.00000000      0.38955181      0.00000000      1.80937347     -0.42952859      0.45515117
Si             12.58517645     64.74405753      9.09030049      14     -0.90691565      0.67871480      0.67899001     -0.71102671      1.71622842     -0.81122116
Si             19.45892550     64.67769573      8.96638372      14     -1.28025200      0.79896901     -0.55377955      1.07082902     -0.87131678      0.25789814
Si             29.64366799     65.00447541      9.07849363      14      0.60541338     -0.97831576      0.37292396     -2.01300959     -0.36422345      2.07715300
Si             47.85463046     63.04423610      9.17003441      14      1.45239382     -0.78927112     -1.26426856     -0.78085536      0.43468907     -0.50021425
Si             24.23889962     63.61964270      9.13929750      14     -0.65775203     -0.44925981     -0.76551000      0.45363515     -0.62099122     -0.32247299
Si             32.17662812     63.52713184      9.17094047      14     -0.40203117      1.04880086     -0.28348070      1.04548954     -1.76889498     -0.24063375
Si             35.08441729     64.30217063      9.20976474      14     -0.36867581      1.07109913     -0.05872266     -0.65936775     -0.59554170      1.14501441
Si             45.13705411     64.53590916      9.16605827      14     -0.66225991     -0.66957515     -0.74490841      0.71894162     -0.43392857     -2.46911883
Si             27.27307426     63.04151573      9.09089424      14     -1.07594322     -0.21431692     -0.61039091     -1.94322620     -1.03690188     -0.78336167
Si             40.13220294     64.74701742      9.15618220      14     -0.03601539     -0.14131149     -0.40220448     -1.42691840      0.38484255     -0.95634468
Si             42.59923452     63.01783133      9.09618189      14      1.11828009     -0.80795025      0.26284833     -1.01613163     -0.16677125      1.14149847
Si              7.76793503     62.83028636      9.09528398      14      0.00000000      0.49093080      0.00000000      5.21914879      0.43435874     -1.14191537
Si             37.70598499     63.06173641      9.19486838      14     -0.84306948     -0.65264282      0.65761843      0.92583081     -0.71371427     -1.49240821
Si              9.76559125     60.60273807      9.09802870      14      0.00000000      0.26373720      0.00000000      1.84549119      0.23001757      0.07950573
Si             28.36898607     60.15220369      8.97789579      14     -0.00715966     -0.53652284      1.37456011      0.60558639     -0.54766644     -0.23163891
Si             31.37754263     60.61643841      9.06017095      14      0.82624641      0.56454446     -2.02975576      1.05433853     -0.33703291     -2.04487055
Si             19.56469012     61.51747930      9.11982036      14     -0.56884342      0.98300916      0.63402198      0.58960369      0.98353766     -1.19816488
Si             22.59638038     61.09998390      9.09820429      14      0.97669946      0.49893053      0.57525261     -0.07377173      0.60370414     -0.16992010
Si             49.23502158     60.33705448      9.28154441      14     -0.88511623      2.04283784     -0.64078809     -1.40383775      1.67171735     -0.15295034
Si             14.44014630     59.42512863      9.09917703      14     -0.73229925     -1.20160583      1.13361363     -0.01839018     -0.89574870     -0.99054658
Si             17.43648931     59.30860674      9.15536280      14     -0.33202853      0.05992868      0.57500540      0.84541466      2.26121986     -0.67469323
Si             33.73506660     58.57733812      9.03979180      14     -0.70040653      0.50688400     -1.15214443     -0.82464877      2.05383799     -1.01383460
Si             47.33238764     57.97687265      9.33372581      14     -0.74397379      0.38888778     -1.00838157      1.47730076      0.92235959      0.72018296
Si             36.64337455     58.27347878      9.11746211      14      0.14083527     -0.85952648      0.08228525      1.30298681     -1.20455580      0.33784849
Si             38.99806595     60.20844340      9.16519893      14     -1.02891437     -1.38017989      0.69945001      1.06185410      1.55321978      0.01392938
Si             42.06421451     60.01705006      9.15771756      14     -0.20156047      1.65811773      0.04448135     -0.08474924      0.74609189      1.51468805
Si             44.35351562     58.07237822      9.18299171      14     -1.64373324     -1.38907878      0.42932287     -0.31635204     -0.58209637      2.04925904
Si             23.73327585     58.29879268      9.07696598      14      0.42967890     -0.26319650     -1.38460031     -0.37378105     -0.14042049     -0.25632069
Si              9.93401730     57.54634942      9.11023538      14      0.00000000      0.29738299      0.00000000      2.01714567      0.08567529      0.76614219
Si             26.68152880     57.70814171      9.09840973      14      0.85291502     -1.11234703      0.55484471     -0.15998691     -1.74042600     -1.02022194
Si             12.81496947     56.69794859      9.19759355      14     -0.00318856     -0.32493845     -1.26044191     -0.09306915      0.48401760     -1.95287087
Si              7.25970693     56.04278038      9.11920765      14      0.00000000      0.92904871      0.00000000      4.89064096     -1.15840321     -0.96495847
Si             18.49872186     56.43759953      9.10897151      14      0.15284145      2.18715842     -0.40983880      1.17973709      2.21121433     -1.01965501
Si             21.59794232     56.22968518      9.07265563      14      1.32856918      0.96871566      1.20714891     -0.83437103     -1.30510327     -0.41909044
Si             48.75968674     55.24677947      9.38808046      14     -1.16634214      1.88633172      0.36621992      0.65630494     -0.04979570      1.26328886
Si             33.44943591     55.56971608      9.11789104      14      1.12363727      0.63787328     -0.55600216      1.18886689     -0.36177899     -0.00797435
Si             36.35143160     55.17695850      9.20618338      14     -0.07493813     -0.39251619     -0.50154013      1.18639919      0.33901835     -0.44246627
Si             38.39422906     52.87818276      9.19045447      14     -0.93504895      0.64591894      0.41544208      0.27480199      0.47989687      0.22631555
Si             43.89013804     55.01988990      9.26597957      14      0.59426227     -1.77307082     -0.81240487     -0.37592588     -0.08806718      0.61047464
Si             41.32956860     53.41521340      9.16673988      14     -0.14643193     -0.68475946     -0.56461957      2.61300811     -1.44480732      1.54087084
Si             13.88921696     53.86803510      9.09463692      14     -1.06873244     -0.87864044      0.63067075      0.72530265      0.56803943      0.01219964
Si             16.95163644     53.89509071      9.03621921      14      0.54979643     -1.32718303     -1.98046986     -0.10767634     -0.74901924      1.16698969
Si             27.98445450     54.95782804      9.02161017      14     -0.97512572     -0.38466643     -1.54656828      2.16555632     -0.25855840     -0.05191384
Si             30.91464625     53.81195825      8.99684262      14      1.69856991     -1.18128546     -0.02617848     -0.84020887      2.88440643      0.84388501
Si             22.92875403     53.46929498      9.02907775      14      1.08407200      0.32143113     -0.01985633      1.40416096      1.71642973     -1.71800008
Si             25.86858134     52.83765492      8.99747750      14     -0.00244057     -0.35819276     -0.00170092     -0.51415211      0.14513961     -0.71318737
Si              7.19179884     53.03333354      9.12641141      14     -0.00000000     -1.46534914     -0.00000000      1.25265235      0.50932601     -0.03159184
Si              5.01013020     51.02817468      9.13345735      14     -0.00000000     -1.02092676     -0.00000000      3.52332756     -1.00918432     -0.85698961
Si             46.39284768     53.27251903      9.40596722      14     -0.43576234     -0.77390197      0.50751227     -0.73146583      0.54093169     -0.46843469
Si              9.28320248     50.93704327      9.13366970      14     -0.00000000     -1.48844084     -0.00000000      3.00399137     -0.39599249      0.20367784
Si             47.10655139     50.29445474      9.41138358      14     -0.27985798      1.58372853      0.60589418      0.69895792     -1.19405115      0.91608552
Si             12.33111407     51.24354917      9.20741975      14      1.87682014      0.23223510     -0.91760388     -0.52354442     -2.47677475     -0.08248937
Si             18.34462034     51.23343503      8.93586390      14     -0.34106901     -0.57471828      2.04012118      1.10127587     -0.63872421      2.16139598
Si             21.34630242     50.91826256      8.89347873      14      0.88005466     -0.32441611      1.04278540      0.12156131      0.83868756      0.68092446
Si             31.63269511     50.84290790      9.13920571      14      0.19346040     -0.43834671     -0.57167078     -0.65682104     -0.05359829     -1.66233473
Si             34.35474488     49.54830794      9.17520751      14      0.45955138     -0.70108980      0.21996167      1.02980641     -0.16182464     -1.26353371
Si             26.26397110     49.71837395      9.12065965      14     -1.42700588     -0.01752759     -0.34507433      0.43083080      0.25522297     -0.28509424
Si             37.30715917     50.05778775      9.25388446      14     -0.00132647      0.18083873     -0.20969930      2.67598671     -1.40648915     -2.41865294
Si             29.18702914     48.92644114      9.11385304      14     -0.97772851     -0.79848008      0.31271113     -0.47060112      0.17648230     -0.40037247
Si             40.00975778     48.60166471      9.20967804      14     -0.87947740      0.15588124     -0.18812797      0.59943814      1.15684589      0.46114340
Si             42.17665818     50.65854214      9.26635447      14      0.56457670     -1.45924278      0.80983528     -0.65906258      1.02142631      2.20512717
Si             13.89885091     48.59906522      9.35256425      14      0.46306475      1.51310469     -0.57299400     -0.87914603     -1.17413173     -1.34027229
Si             16.84994735     48.61249368      9.27388474      14     -0.92036032     -0.00784615      0.39729060     -0.03989189      0.20624059      0.08618261
Si             42.85198504     47.92993965      9.34026910      14     -2.70571297      0.14038840      0.50129496     -1.24584713      1.55894564      0.92104401
Si              7.08764226     48.88596608      9.14061158      14     -0.00000000     -0.04863124     -0.00000000      2.92497900     -0.73943928      0.36921057
Si             23.46373377     48.63349920      9.05727547      14     -0.10275887      0.26757054      0.46491053     -0.06779796      0.69715432      0.43710498
Si             45.72481655     47.54051718      9.49121347      14      1.12105590     -0.12458968     -1.16324873     -0.88900019      1.92617577      0.87362250
Si             30.82729397     46.60823400      8.54507683      14      1.01870102     -0.12364109     -1.04754897     -0.17259028     -1.29660657      0.11723052
Si             33.28947597     46.84760222      8.91168317      14     -1.43326344     -0.49529974      0.68853064      0.01749760     -1.07855332     -1.38139059
Si             19.11621828     46.70935361      8.84479752      14      0.77745608     -0.38553405     -1.44116407     -1.54676641      0.26294679      1.29216446
Si             48.37297187     46.06133937      9.68235710      14      1.53925733      2.28588010     -0.81724639      0.07599024      1.58106286      1.05376756
Si             21.47730935     46.50942837      9.03003848      14      0.78079246     -0.75342367      0.27308911      0.08992340     -0.23848375      0.36490989
Si              6.85907955     45.84113271      9.15329290      14      0.00000000      0.71831075      0.00000000      3.17508609      0.35107331     -2.25365380
Si              9.59071083     44.77332220      9.15859770      14      0.00000000      0.21323190      0.00000000      4.95072265      0.34834141     -4.49065633
Si             12.00526077     46.33104403      8.80854778      14     -1.86876160     -0.11078395     -1.95323181     -0.82450766      1.84359461      2.74356086
Si             39.87374658     38.38044184      7.78167734      14     -0.46365801      0.12483341     -0.31051854      1.16447762      1.64671113     -2.29118306
Si             42.36040671     38.10963308      8.05285275      14     -0.58313686      1.48984256     -2.33185189     -0.54186466     -1.03011517     -0.20224210
Si             32.85135787     35.90710102      8.29131777      14      0.33630455      0.00356563      0.37028120     -0.39096158     -0.16132321     -0.23203781
Si             35.65113238     34.84188346      8.39051064      14      0.71772466      0.45814749     -0.74568620     -1.68134362     -0.28389766     -0.46390230
Si             27.58945291     36.56860825      8.83070891      14     -0.15317831     -1.13941091      0.33635422     -0.12684466     -0.53861308     -0.68066687
Si             17.50766108     36.89445792      9.29007715      14      1.30603398     -0.41314856      0.06681943     -0.46067146     -1.92873823     -0.87126673
Si             25.24869856     34.56136384      8.69148526      14      0.95017794     -0.01195023      0.76817989     -1.17208778      0.29650668      1.66115105
Si             14.56259742     35.85666952      9.01394255      14     -0.51172495      0.17770043      0.55551870     -0.68769779     -0.37227547     -0.11134141
Si             38.27860945     35.94336887      8.34738401      14     -0.23594169     -0.44452307      0.86217486      1.56140358     -0.11965418      1.45392238
Si             19.56121691     34.48642134      9.06732082      14      0.95727428     -0.20263410     -0.70248872     -0.37734510      0.61821874     -0.53820547
Si             22.41829796     35.45660941      8.70047335      14     -1.68049882     -0.33882643     -1.60694265      1.08878650     -0.12333518     -0.46700770
Si              6.83019861     33.41371982      9.17611392      14      0.00000000      0.30859158      0.00000000      4.73640005     -0.46041527     -0.48393947
Si             30.13672683     34.67436933      8.63970847      14      0.77608190     -1.22553992      0.32418601     -0.62778368      1.85919783     -0.66891795
Si             43.31553841     35.28750943      8.45732578      14      0.72408788      0.62858201      1.15224676     -1.00563233     -0.29146390      0.80015757
Si              9.54393444     34.95077312      9.17118781      14      0.00000000      0.70596981      0.00000000     -0.14178008      0.82773865      1.53594598
Si             40.57165297     34.00359344      8.43299185      14      0.35326883      2.03282173     -0.09658263     -0.64489906      0.28098388      0.74275311
Si             12.27306305     33.81159510      9.16140048      14      0.21067495     -0.60136014     -0.96893398      1.91889919      1.47589843     -0.12768243
Si             45.42957948     33.03064881      8.48236386      14     -0.23814942     -0.76844706     -0.06554407     -0.82763034     -0.23429922     -0.04248835
Si             48.30466183     33.82296368      8.39859728      14      0.20230644      0.48549999     -0.60101171      1.59922337     -0.26638809      1.16047041
Si             25.30847140     31.54879095      8.78243275      14     -0.43133595     -0.42397839      1.44104808     -0.04706969     -0.54843117      1.81975529
Si             27.85645352     29.91144434      8.76535225      14     -1.12561331     -0.32207379      0.97975267     -1.25804133     -1.14713458      2.06892551
Si             30.33053488     31.72306353      8.61390209      14     -0.36771955      0.04619233      0.05145542     -0.86289392     -1.99637530      0.33973480
Si              7.37807494     30.45033793      9.18847220      14      0.00000000      0.61049413      0.00000000      0.98790670     -0.12261568      0.91945079
Si             22.59097554     30.25115244      8.86700610      14      0.93229013     -0.04715133      0.76151568     -1.84242276      1.40435691      1.72873187
Si             12.86389390     30.93059390      9.07641021      14      0.74454171     -0.25260402      0.60857767     -0.05544553     -0.79992473      0.66319044
Si             15.01149251     28.76421132      9.14161551      14     -0.46382450     -0.39106115      0.13694303     -1.25470962      0.35324630     -0.26917938
Si             19.74899586     31.51019882      9.05946086      14      0.94890333      0.48646620     -1.09722987      0.25975838      0.42160545      0.25692186
Si             32.97720372     30.25957502      8.59237819      14      0.22949924      0.18269629      0.28050292      1.51724379     -0.97633485     -0.78387077
Si             35.72143869     31.80586054      8.38976571      14     -0.09179861      0.97933111      0.69887431     -0.51880875     -0.68275983      1.12471011
Si             38.10029229     30.00898286      8.40937652      14     -0.39293524      1.35942437      0.88126838     -0.10961851     -1.87090269      0.93562250
Si             18.02251813     29.08623526      9.10663511      14      2.27171996     -0.13904319     -1.22271462      0.72411459      0.00444198     -0.71634071
Si             43.92434699     30.39629701      8.52244664      14     -0.98278328      1.01764279     -0.49227256     -0.73319969     -0.80435597      1.12175364
Si             40.90070388     30.89630834      8.52843198      14     -1.01965374      0.90684990     -0.21587318     -0.38567314     -0.37123038     -0.62204182
Si             10.20431493     29.41779727      9.16283400      14      0.12192598      0.91277461      0.83118181     -1.27854174     -0.57279317      0.96797200
Si             48.02633055     26.88015716      8.52186521      14     -0.52022572     -0.70987260     -0.88912806     -0.92717006     -0.88888378      0.07504795
Si             30.38822461     25.31571383      8.74681983      14      0.82068092      0.97851282      0.02744618      1.34004358      0.53818566      0.42979744
Si             32.87933460     27.21176060      8.64136348      14     -0.47241109      1.04892279     -0.04722692     -0.90223229     -1.50611359     -0.93141464
Si              5.94348507     27.75988234      9.19810100      14     -0.00000000     -0.99146416     -0.00000000      4.37166819      2.15843526     -0.73757118
Si              7.84001085     25.34439236      9.20895077      14     -0.00000000     -0.60558013     -0.00000000      1.92971146     -0.15574958      0.30934470
Si             25.05672160     25.53953917      8.99066579      14      0.16752560      0.90312973      0.88601153     -0.68404283      0.68031322     -0.53526367
Si             27.87998425     26.86317670      8.82926933      14     -1.07261340     -0.01820559      0.75819146     -2.65046714      1.79326390      1.16887322
Si             45.12021293     27.52453190      8.54915235      14     -0.20602547     -0.13674945     -0.51544403     -0.15955639      1.71886628     -0.13642930
Si             10.59762658     26.39297390      9.32767369      14      0.91628573     -1.29487260      0.22248204     -0.97700835      0.12408706     -1.73636923
Si             35.35968606     25.62613273      8.58351014      14     -1.57750695      0.25978984      0.60414042     -1.30462605      0.78997044      2.06250599
Si             43.30088315     25.08683872      8.65481568      14     -1.39001568     -0.01654370      1.96138661     -0.97197310     -0.52928335     -0.49463428
Si             22.57285943     27.19675389      8.90445176      14      0.31380087     -0.48088818     -0.16878534     -0.63654133      0.21428848      1.25117602
Si             37.95816682     27.07715397      8.51328252      14      0.55629155      1.16540476      0.45362409      0.14491128      0.11808000      0.59512466
Si             40.28807338     25.18129542      8.60670877      14     -0.12059231     -0.17942664     -0.11974463     -1.08991357      0.43557893      1.72018923
Si             13.62671216     25.98599809      9.19784643      14      0.60719651     -0.75416309      0.29993152     -0.25734268      1.92508751      0.58355864
Si             19.71700975     26.43741341      9.09622027      14      0.16920576      0.58838319     -0.23165593     -2.13783069     -0.15019963     -0.58879807
Si             18.33536324     23.75425375      9.17826593      14      0.35610755     -0.20169338      0.17760493      2.14025900     -0.47698133     -0.47993018
Si             15.27985801     23.38744268      9.26649717      14     -0.45147099     -0.87934070      0.07275824     -0.14264822      2.29339571     -1.01838735
Si              6.40216372     22.64914455      9.21946884      14      0.00000000      0.01446450      0.00000000      6.09881766     -0.89544968     -0.58432950
Si             19.95093591     21.15391037      9.18577478      14      0.82285930      0.42437087     -0.01614752      0.33637401     -0.18914745      0.80024119
Si             22.91425863     20.44737239      9.16272709      14      0.41987218      0.50241067     -0.30676230      1.54975965     -0.12096746     -0.93999965
Si             48.30803283     23.89877051      8.61248363      14     -0.45518328      0.22069600     -0.15444202     -0.15896753      1.43991447     -1.06784068
Si             25.29126342     22.54824696      9.01253441      14     -0.32712908      1.07631404      0.73508201      0.48455076     -1.18594394     -0.27017666
Si             27.95502227     21.01335683      8.82646352      14     -0.40256383     -0.98657976      0.12796916      0.52161146      0.67706764      1.52987036
Si             46.69011299     21.39502257      8.76193795      14     -0.41340862      1.23280315      0.25431526     -0.13594205      0.79143017     -0.65119954
Si             30.73687368     22.27023929      8.78362417      14     -2.11373800     -0.20489825      1.02705284     -0.93691012     -1.34390516     -0.54492782
Si             33.42428756     20.69826243      8.82947887      14      0.21875020      1.63050271      0.46330679     -1.17836606     -0.82948099     -0.43714688