8770
energy=-167759.30102414 strain=0.10000000 n_efield_old=3 cutoff=10.58354498 nneightol=1.20000000 pbc="T T T" Lattice="265.39576501       0.00000000       0.00000000       0.00000000      98.00293199       0.00000000       0.00000000       0.00000000      24.28372928" Properties=species:S:1:pos:R:3:Z:I:1:momenta:R:3:map_shift:I:3:n_neighb:I:1:force:R:3:charge:R:1:fixdip:L:1:efield:R:3:dipoles:R:3:efield_old1:R:3:efield_old2:R:3:efield_old3:R:3
Si              5.00086227     11.46879745      5.53120599      14     -0.00000000     -0.13893355     -0.00000000       0       0       0      76      3.07774819      1.01852043      0.84958087      2.85911880    F      4.05675615      1.51393105      1.62427591      0.00000000      0.00000000      0.00000000     -0.35435022     -0.04216474      0.61070107     -0.35435022     -0.04216474      0.61070107     -0.34599173     -0.01538564      0.61635854
O               6.30231593     10.73946858      5.10405492       8      0.00000000      1.43952235      0.00000000       0       0       0      84     -0.07953196     -1.35757057      0.41881649     -1.42955940    F      2.42142820     -0.51210274     -4.41841055      0.17076253      0.02157625     -0.17471091     -0.10209606     -0.10438611      0.20794974     -0.10209606     -0.10438611      0.20794974     -0.10625976     -0.09956132      0.21050327
O               5.00723728     12.98177789      5.08112591       8     -0.00000000     -0.22504518     -0.00000000       0       0       0      86     -2.24826545     -0.40258378      0.70827000     -1.42955940    F      1.12241129      0.11604960     -5.10567514      0.20629947      0.02322338     -0.23312598     -0.31835687      0.04727529      0.32698598     -0.31835687      0.04727529      0.32698598     -0.31419224      0.04336049      0.33339789
O               5.00000000     11.35616239      7.14186463       8      0.00000000      0.05560113      0.00000000       0       0       0      75     -2.27855587     -0.01795818      0.13013691     -1.42955940    F      1.14515202     -1.05019249     -0.06045579      0.23255698     -0.03364915     -0.00812552      0.04057872      0.13864200      0.00195312      0.04057872      0.13864200      0.00195312      0.04082030      0.14423621     -0.00155570
Si              5.00086227     11.45971544      8.75252328      14     -0.00000000     -0.27930874     -0.00000000       0       0       0      76      3.75769487      0.23234022     -0.83207636      2.85911880    F      3.88303681      1.42638819     -1.80910654      0.00000000      0.00000000      0.00000000     -0.27948819     -0.04562239     -0.68264243     -0.27948819     -0.04562239     -0.68264243     -0.29049344     -0.05056796     -0.69061910
O               6.30231593     10.68290737      9.17967435       8     -0.00000000     -0.82982706     -0.00000000       0       0       0      85     -1.02653588     -0.59320434     -0.53403462     -1.42955940    F      1.81787635     -0.63776797      4.29063923      0.16781112     -0.01305728      0.16985001     -0.07720683     -0.10319031     -0.21352670     -0.07720683     -0.10319031     -0.21352670     -0.07620096     -0.10588326     -0.21230686
O               5.00723728     12.97202032      9.20260336       8      0.00000000      0.71194361      0.00000000       0       0       0      83     -1.96688705     -0.87620185     -0.40964603     -1.42955940    F      1.04795255     -0.31950511      5.26644073      0.18937006      0.01000638      0.23585972     -0.24184056      0.04535320     -0.31464394     -0.24184056      0.04535320     -0.31464394     -0.24345125      0.04832053     -0.32112724
Si             10.30337521      5.36452326      5.54085779      14      0.67031607     -1.25915910      0.86001203       0       0       0      74      1.86925984      1.13605520     -0.07830485      2.85911880    F      1.53869849      3.01491874      1.11018253      0.00000000      0.00000000      0.00000000      0.98983708      1.16229771      0.11328721      0.98983708      1.16229771      0.11328721      0.98113875      1.15513644      0.09627591
Si              7.66218606      6.89996818      5.52590560      14      0.00000000      0.83013220      0.00000000       0       0       0      70      2.60401945      0.10379917      1.66658383      2.85911880    F      2.80364003      3.50222723      1.49391754      0.00000000      0.00000000      0.00000000     -0.71775698      1.51552370      0.48614472     -0.71775698      1.51552370      0.48614472     -0.72888886      1.51327181      0.48688863
Si              7.66462340      9.91545592      5.53251478      14      0.00000000      1.44799617      0.00000000       0       0       0      88      0.65100925      0.73559919     -0.08502476      2.85911880    F      1.85530037      0.66012219      1.54515813      0.00000000      0.00000000      0.00000000      0.39113868      1.09839961      1.59139502      0.39113868      1.09839961      1.59139502      0.41721244      1.10950194      1.60840241
Si             10.37119419     11.39735375      5.55522259      14     -0.86934666     -0.19638205     -1.30096881       0       0       0     119     -0.87783947     -0.87495417      0.21602617      2.85911880    F      0.51389636      0.72421826      1.10326216      0.00000000      0.00000000      0.00000000      0.95842191      0.72102478      1.24756279      0.95842191      0.72102478      1.24756279      0.94054206      0.75387010      1.25681884
O               8.94355459      6.04932152      5.11009363       8     -0.00000000     -0.95806957     -0.00000000       0       0       0      76     -0.09917245     -0.62517366      0.16132173     -1.42955940    F     -0.54169557     -0.21868020     -4.54135771     -0.01128906      0.06128614     -0.17970882      0.04463932      0.04702212      0.09224741      0.04463932      0.04702212      0.09224741      0.04414495      0.05095953      0.08519548
O              11.76421024      5.72179610      5.04520822       8      0.10229996     -0.02678332     -1.22855126       0       0       0      80     -1.29681783      0.43451448      1.11061080     -1.42955940    F      4.37424667     -2.11251791     -4.89273730      0.30716608     -0.08849629     -0.22230990      0.01377967     -0.09448681      0.08284885      0.01377967     -0.09448681      0.08284885      0.00980655     -0.09520511      0.08349192
O               7.66808511      8.36911514      5.08243827       8      0.00000000      0.11975807      0.00000000       0       0       0      79     -1.50246803     -0.75928754     -0.18312751     -1.42955940    F      0.67861030      2.58284490     -4.87743221      0.12025576      0.22873978     -0.17437197     -0.19918477     -0.01723638      0.21430237     -0.19918477     -0.01723638      0.21430237     -0.19613283     -0.01825348      0.21328551
O              11.68297522     10.64771922      5.05381604       8      0.44325640     -1.00659646     -1.28965847       0       0       0     126     -0.64378101      0.57845119      0.09058921     -1.42955940    F     -0.01239092      0.17778471     -5.88119962      0.01119816     -0.03476925     -0.23621795      0.22922890      0.41470939      0.21535842      0.22922890      0.41470939      0.21535842      0.22822155      0.41924326      0.22194903
O               9.02223119     10.52731434      5.10272869       8     -0.00000000     -0.09278031     -0.00000000       0       0       0     105      0.70241280      0.62070372      0.51249406     -1.42955940    F      2.82771184      0.07719107     -4.29105118      0.13046401     -0.01837590     -0.15931115      0.27699308      0.18935755      0.38937075      0.27699308      0.18935755      0.38937075      0.27664962      0.19561019      0.38754133
O              10.07834471     12.86806462      5.10429964       8     -0.34572267     -1.02990691      0.15748619       0       0       0     125     -0.01301033      0.67445333     -0.01674416     -1.42955940    F     -3.02742303      0.45637546     -4.31881602     -0.18483373      0.00151154     -0.14302154      0.00261595      0.02786039      0.40000992      0.00261595      0.02786039      0.40000992      0.00392889      0.02741559      0.40211239
O              10.27999068      5.06425601      7.12044026       8      0.90068092     -0.23438696      0.25947818       0       0       0      71     -0.47492653      0.17420705     -0.00605823     -1.42955940    F      0.02388996     -3.50497863     -0.34142363      0.02207741     -0.10529800     -0.02489943     -0.00901510      0.28042422     -0.05277599     -0.00901510      0.28042422     -0.05277599     -0.01169124      0.27686726     -0.05101411
O               7.65940928      6.66583054      7.14186463       8      0.00000000      0.84987213      0.00000000       0       0       0      71     -1.72326098      0.08078362     -0.25727724     -1.42955940    F      0.82098051     -1.95959105      0.00551643      0.19157399     -0.07235929      0.01034842      0.21392542     -0.00992881      0.05375414      0.21392542     -0.00992881      0.05375414      0.21310468     -0.01141090      0.05535210
O               7.66580477      9.70237819      7.14186463       8      0.00000000      0.91634686      0.00000000       0       0       0      89     -1.38438907      0.40698502      0.06302190     -1.42955940    F      0.33700201     -1.97577694     -0.14665548      0.05522835     -0.13224338     -0.01062224     -0.16837967     -0.19581628     -0.00486020     -0.16837967     -0.19581628     -0.00486020     -0.17023233     -0.20280598     -0.00538635
O              10.39455119     11.33948135      7.17847057       8     -0.05167910      0.63767346     -0.50156419       0       0       0     121     -0.53224091     -0.13329631      0.43179764     -1.42955940    F      0.54457195     -0.41659335      0.60344749      0.03692502     -0.03288382      0.01824246      0.17731915      0.25856650     -0.05503812      0.17731915      0.25856650     -0.05503812      0.17952168      0.25796595     -0.06096182
Si             10.29209757      5.47924787      8.65413972      14      0.43305648     -0.55938083     -0.44280731       0       0       0      76      0.83453844      0.64319258      0.22963996      2.85911880    F      0.92611683      3.14360282     -0.96585179      0.00000000      0.00000000      0.00000000      0.65725989      0.93278062     -0.67512442      0.65725989      0.93278062     -0.67512442      0.66056820      0.93060404     -0.68170393
Si              7.66218606      6.88148664      8.75782366      14      0.00000000      0.17693327      0.00000000       0       0       0      72      1.54203431     -0.28801551     -2.08729138      2.85911880    F      3.25645369      3.36476311     -1.33977955      0.00000000      0.00000000      0.00000000     -0.52265526      1.18565469     -0.54943817     -0.52265526      1.18565469     -0.54943817     -0.52066987      1.18036690     -0.55307969
Si              7.66462340      9.87839503      8.75121448      14      0.00000000      0.05680272      0.00000000       0       0       0      88      0.93193309      0.95705375      0.14597023      2.85911880    F      1.45069610      0.56346251     -1.68080587      0.00000000      0.00000000      0.00000000      0.38553191      0.88423919     -1.57436434      0.38553191      0.88423919     -1.57436434      0.36236623      0.88182929     -1.58461501
Si             10.31052166     11.37233348      8.83471989      14     -1.40656673      0.71703787     -1.09544067       0       0       0     118      1.61354422      0.81223306     -1.07573840      2.85911880    F      0.19827315      0.73777125     -0.73149693      0.00000000      0.00000000      0.00000000      0.78680898      1.11279618     -1.10516110      0.78680898      1.11279618     -1.10516110      0.81248921      1.09985680     -1.07593252
O               8.94355460      6.09856557      9.17363564       8     -0.00000000     -0.67829992     -0.00000000       0       0       0      77      0.16519713     -1.25487235     -0.03492631     -1.42955940    F      0.16987376     -0.46400913      5.47070538      0.03057352      0.07502098      0.23558259      0.04554638      0.00852546     -0.13932356      0.04554638      0.00852546     -0.13932356      0.04654981      0.01444278     -0.13478587
O              11.57979289      6.08283478      9.28074658       8     -0.13487179      1.07711810      0.00237041       0       0       0      85     -0.07831216     -0.22473989     -0.59041609     -1.42955940    F      2.43293441     -0.21186105      6.13328487      0.15957487      0.03717601      0.28062240      0.03538646     -0.00869246     -0.18745401      0.03538646     -0.00869246     -0.18745401      0.03754088     -0.00868319     -0.18287142
O               7.66808511      8.33004100      9.20129099       8     -0.00000000     -0.82726796     -0.00000000       0       0       0      79     -1.50977301      0.76351494      0.42793805     -1.42955940    F      0.64999450      2.80311924      5.01929824      0.11690284      0.19260382      0.17637013     -0.19303679     -0.01914024     -0.24149784     -0.19303679     -0.01914024     -0.24149784     -0.19262154     -0.01697663     -0.23858131
O              11.61657094     10.60544780      9.33939568       8      0.18656884      0.51622420      0.84707658       0       0       0     123     -0.35477594      0.55773742      0.14263969     -1.42955940    F     -0.91366007     -0.96941725      4.80714169     -0.05398074     -0.09827803      0.15679025      0.12918947      0.23556789     -0.20831441      0.12918947      0.23556789     -0.20831441      0.12519469      0.23773236     -0.20366653
O               9.02223119     10.53859348      9.18100058       8     -0.00000000     -0.96231534     -0.00000000       0       0       0     105     -1.76732017     -0.87467944      0.03741591     -1.42955940    F      1.09372212     -0.63628558      4.04090390      0.12232642     -0.00297703      0.12447125      0.16431481      0.23134225     -0.38679747      0.16431481      0.23134225     -0.38679747      0.16139834      0.23353314     -0.38000495
O              10.11365687     12.86597494      9.29277826       8     -0.88346890     -0.70311999      0.41593500       0       0       0     126     -0.11192626      1.63157465     -0.78711320     -1.42955940    F     -1.96578838      1.32364016      4.51195346     -0.11524648      0.01427732      0.18209047      0.03199662      0.11971709     -0.36584720      0.03199662      0.11971709     -0.36584720      0.03740985      0.11992307     -0.36368126
Si             15.65425747      5.54877140      5.63346127      14     -1.00811663     -0.89912141      0.13731806       0       0       0      94     -0.07280411     -1.01279555      1.90556112      2.85911880    F      0.81376769      3.03669300      0.18110558      0.00000000      0.00000000      0.00000000      1.06522201      1.42715621      0.30808489      1.06522201      1.42715621      0.30808489      1.08035206      1.43044041      0.29851204
Si             12.93717855      6.82324138      5.59286666      14     -1.21848811     -0.36077084      1.20181675       0       0       0      95     -3.99385360      1.15600444     -0.39320032      2.85911880    F     -0.11555917      2.02261514      1.69302609      0.00000000      0.00000000      0.00000000     -0.43889815      1.76983437      1.13196079     -0.43889815      1.76983437      1.13196079     -0.41471715      1.80007480      1.11041915
Si             12.92116275      9.88700423      5.64457470      14     -0.44404006     -0.48065254     -0.29880772       0       0       0     126     -0.98666837     -1.28050178      1.15299890      2.85911880    F      0.22638635      0.88977072      1.02657216      0.00000000      0.00000000      0.00000000      0.45505398      0.95485572      1.09146949      0.45505398      0.95485572      1.09146949      0.43190842      0.98090388      1.09393149
Si             15.66142165     11.28936520      5.67397932      14      1.03121860      1.21188656      1.37816006       0       0       0     141      0.65710092     -0.03716336      0.13296298      2.85911880    F      0.18156367      0.64704887      1.22384218      0.00000000      0.00000000      0.00000000      0.05683378      0.83485374      0.53954268      0.05683378      0.83485374      0.53954268      0.01782585      0.81658163      0.55346688
O              14.30633873      6.22100798      5.32854694       8      0.17251953      0.45012864      0.76630172       0       0       0      98      1.94270992     -0.97352953     -0.76011822     -1.42955940    F     -0.08759429      0.88046345     -3.25878998     -0.11886628      0.12130416     -0.06710726      0.44202298      0.33881057      0.44577153      0.44202298      0.33881057      0.44577153      0.44753522      0.33663369      0.43566343
O              17.00402580      5.86499062      4.97226685       8     -0.67815814     -0.87116314      1.00375912       0       0       0      97      0.81282482      0.66902022      0.90585291     -1.42955940    F      3.65529442     -1.74970027     -6.85893994      0.21957857     -0.07388394     -0.33919507     -0.26536483      0.09266109      0.29255056     -0.26536483      0.09266109      0.29255056     -0.27604683      0.09268449      0.29092870
O              12.64907800      8.31541098      5.20405069       8     -0.64098071     -0.15132310      0.29774429       0       0       0     111      0.69815784      0.26524588     -0.01796146     -1.42955940    F     -3.24702224      2.03140813     -3.79204054     -0.20790605      0.11308524     -0.10947909     -0.08290379      0.15206881      0.24935323     -0.08290379      0.15206881      0.24935323     -0.08373787      0.15746657      0.23339404
O              16.97642366     10.45321478      5.29516955       8      0.44075528     -0.65475340      0.98232201       0       0       0     142      0.53763570     -0.07804415     -0.16936649     -1.42955940    F     -0.88459956     -1.14125606     -2.79744799     -0.07570507     -0.07828119     -0.04990824      0.05873546      0.11659944      0.42549430      0.05873546      0.11659944      0.42549430      0.05761086      0.10133057      0.42416676
O              14.34503527     10.43439710      5.38295877       8      0.19505923      0.64272134      0.26729886       0       0       0     140      1.11098730      0.11716770     -0.80648998     -1.42955940    F      1.76963907     -1.20936728     -2.47032396      0.06915460     -0.07377313     -0.01016123     -0.07641522     -0.00349076      0.39639180     -0.07641522     -0.00349076      0.39639180     -0.07785638     -0.00158821      0.39621905
O              15.67383606     12.78720228      5.18201748       8      0.68480175     -0.06037210     -0.00353822       0       0       0     161     -0.34754040      0.25893215     -0.34763258     -1.42955940    F      0.19810415      0.37321988     -4.71433087      0.02859788      0.01615775     -0.15597771     -0.07426876      0.04437257      0.11792060     -0.07426876      0.04437257      0.11792060     -0.08587832      0.04759687      0.12653466
O              15.55310402      5.09308610      7.23416853       8     -0.37013967     -0.55182921      0.08393119       0       0       0      88      0.71630860      0.29669960     -3.15411826     -1.42955940    F     -1.15797375     -4.81200368     -1.38444341     -0.09617899     -0.18839082      0.03044754      0.06385826      0.44502526      0.01295771      0.06385826      0.44502526      0.01295771      0.06952783      0.44204362      0.01406874
O              12.65641958      6.79157147      7.16407905       8     -0.11158764     -0.50622150      0.10669670       0       0       0      94      0.08002977     -0.26932596      1.64076537     -1.42955940    F     -2.23338423     -0.91590842      0.69638555     -0.11789802     -0.03627685     -0.02600895     -0.23692172     -0.06443462      0.03947960     -0.23692172     -0.06443462      0.03947960     -0.23959087     -0.06301746      0.04299608
O              12.80526087      9.80806107      7.28677012       8     -0.39239785      0.85299484      0.03437670       0       0       0     125      0.45049247      0.11944073     -1.26531570     -1.42955940    F     -1.69047922     -1.40266262     -0.18978070     -0.11975810     -0.10095681      0.03215739     -0.01721562      0.09338657     -0.02287121     -0.01721562      0.09338657     -0.02287121     -0.01500224      0.10277871     -0.03135216
O              15.68562763     11.36452047      7.27290489       8     -0.08936028      1.24076543     -0.49469438       0       0       0     146      0.24907576     -0.09404079     -0.43003880     -1.42955940    F     -0.47678464      0.48707406     -0.32730483     -0.03881281      0.03130494     -0.01045222      0.01685023      0.21052728      0.01926009      0.01685023      0.21052728      0.01926009      0.01293372      0.20472511      0.01723234
Si             15.62665643      5.60114316      8.70546675      14      0.47895279      1.50799862     -0.48663799       0       0       0      95     -0.55139801     -0.41349679      0.49579289      2.85911880    F      0.28827051      2.85973016     -0.99217193      0.00000000      0.00000000      0.00000000      0.70426993      1.37530291     -0.47095943      0.70426993      1.37530291     -0.47095943      0.73812298      1.35828683     -0.43861813
Si             12.83960371      7.00946943      8.79007654      14      0.33333170      1.35908251     -0.70740732       0       0       0      98      1.31812671     -2.31598186     -0.64693271      2.85911880    F      0.03582532      2.11220462     -1.16845219      0.00000000      0.00000000      0.00000000     -0.31727607      1.31616390     -1.38022551     -0.31727607      1.31616390     -1.38022551     -0.35076900      1.30367684     -1.33570234
Si             13.00478903     10.00628432      8.88401243      14      0.07798941     -0.41480337     -0.71618156       0       0       0     128      0.01044018      0.05224904     -0.40110611      2.85911880    F     -0.14815782      0.23549259     -1.29014368      0.00000000      0.00000000      0.00000000      0.35005877      1.46970602     -1.05459019      0.35005877      1.46970602     -1.05459018      0.35810732      1.55390724     -1.04323073
Si             15.78225144     11.36481000      8.85388396      14     -0.48050850     -0.49507299      1.59118683       0       0       0     143      0.36212143      0.34720562      1.05344419      2.85911880    F     -0.27266894      0.62954084     -1.60440537      0.00000000      0.00000000      0.00000000      0.39115028      0.82802461     -0.91973328      0.39115028      0.82802461     -0.91973328      0.36115061      0.85877072     -0.92034993
O              14.32377576      6.28506744      9.07845268       8      0.45251265      0.75216991      0.89436494       0       0       0      98     -2.54618144      0.65100918      0.10551372     -1.42955940    F     -2.68712666      2.10052425      3.42160713     -0.10011412      0.14105106      0.10182424      0.21357223      0.15865389     -0.44786257      0.21357222      0.15865389     -0.44786257      0.20973086      0.15952133     -0.44342061
O              16.99797790      5.93106933      9.29204877       8      0.43298607     -0.35000582     -0.82014460       0       0       0      99      1.10760523      0.20160032     -0.11050949     -1.42955940    F      2.77323882     -1.52600831      6.68655319      0.16380094     -0.04377080      0.30073644     -0.24220968      0.09745834     -0.28725469     -0.24220968      0.09745834     -0.28725469     -0.24356642      0.10269918     -0.28709260
O              12.96563235      8.44667030      9.26981950       8     -0.71485570     -1.11764959      0.49202043       0       0       0     113     -0.11858275      0.30343962      0.73780308     -1.42955940    F      0.77052693      2.17289704      4.71993958      0.04963580      0.13676741      0.13585278      0.10587311      0.20475660     -0.27042787      0.10587311      0.20475660     -0.27042787      0.10643145      0.19319957     -0.25054626
O              17.10336503     10.44703863      9.18086949       8      0.40555294     -1.00928767     -0.11115281       0       0       0     142     -1.27325487      0.81205278     -0.19926145     -1.42955940    F     -1.80593903     -0.78922923      3.63912767     -0.06316681     -0.08582190      0.11389094      0.08745100      0.11879346     -0.39641406      0.08745100      0.11879346     -0.39641406      0.08946619      0.11656717     -0.39306601
O              14.42733347     10.59634099      9.24704393       8     -0.18627268     -0.05830862     -0.34632650       0       0       0     139     -0.36218026     -0.17245542      0.11110072     -1.42955940    F      1.19803562     -0.65312637      3.53397754      0.09022320     -0.03980223      0.08971513      0.04562737      0.20215142     -0.37312056      0.04562737      0.20215142     -0.37312056      0.04795880      0.21723128     -0.36725100
O              15.79516704     12.87629563      9.38519927       8     -0.79753790     -2.00299060      0.20618993       0       0       0     158      0.23935660      0.26770529     -0.41877023     -1.42955940    F      0.26963860      0.80794789      4.57045746     -0.00580949      0.03771921      0.16379132      0.07382216      0.07129215     -0.24431801      0.07382216      0.07129215     -0.24431801      0.06708561      0.07128065     -0.25703181
Si             21.03591958      5.60711421      5.71475846      14      0.30116618      0.39771434      0.07345641       0       0       0      97      0.46963352     -0.43074196      1.21422578      2.85911880    F     -0.11794722      2.61844664      0.33260444      0.00000000      0.00000000      0.00000000     -0.41482677      1.37577948      0.04524939     -0.41482677      1.37577948      0.04524939     -0.38509819      1.37565396      0.03854331
Si             18.27509666      6.78381874      5.53264693      14      0.18231241     -0.76285579      0.67384100       0       0       0     103     -0.24853080      0.06758535     -1.46571451      2.85911880    F      0.05427223      1.94536108      1.55858460      0.00000000      0.00000000      0.00000000     -0.75954441      2.12938902      1.66557051     -0.75954441      2.12938902      1.66557051     -0.82321432      2.17405615      1.70641682
Si             18.42591484      9.81690754      5.56112345      14      1.10816721      0.36119218     -1.00109302       0       0       0     131     -0.29856949      0.33534129     -1.39270395      2.85911880    F      0.28355882      0.28779675      1.64105971      0.00000000      0.00000000      0.00000000      0.29359600      1.23932509      1.23039254      0.29359600      1.23932509      1.23039254      0.21302858      1.12551939      1.25049271
Si             21.10805446     11.26653347      5.58879730      14     -0.32760680     -0.19440233      1.50777231       0       0       0     143     -0.62595846      0.94993371     -0.69435278      2.85911880    F      0.09671922      0.76233689      1.03212907      0.00000000      0.00000000      0.00000000      0.08153218      0.02808071      1.27509881      0.08153218      0.02808071      1.27509881      0.12082561      0.03952430      1.29151623
O              19.63261691      5.99596106      5.22726541       8      0.83419322     -0.74747711     -0.17602665       0       0       0      99      0.30855448     -0.32992663     -0.05274939     -1.42955940    F     -2.53065227     -1.20960148     -4.49969905     -0.20739747     -0.00592395     -0.16361469      0.20614380      0.19337578      0.43455166      0.20614380      0.19337578      0.43455166      0.21208553      0.19260341      0.44095663
O              22.42798641      6.02881647      5.19907216       8      0.14421721     -0.46724360      0.73488332       0       0       0     101     -0.43962551     -0.11952919     -0.34159226     -1.42955940    F      2.44246588     -1.91870292     -4.98772106      0.20099005     -0.06391757     -0.17475537     -0.26884387      0.06393633      0.22133650     -0.26884387      0.06393633      0.22133650     -0.27944638      0.06090999      0.22367721
O              18.31226511      8.27012627      5.03150224       8     -0.76803226      0.91889347      0.72254031       0       0       0     120     -0.19035089     -0.66360681      0.77897739     -1.42955940    F     -0.27301031      2.02006434     -5.21719274     -0.00616113      0.15015813     -0.21633552     -0.08803196      0.15258827      0.36539928     -0.08803196      0.15258827      0.36539928     -0.09453973      0.16632928      0.38317532
O              22.51251798     10.58192297      5.15271558       8     -0.59306698     -0.81573435      0.59060973       0       0       0     142     -0.80324657      0.35034224      1.08101406     -1.42955940    F     -0.35702190      0.11460727     -4.72150106      0.00446964     -0.02085174     -0.21230673      0.04089289      0.24131417      0.50195293      0.04089289      0.24131417      0.50195293      0.03624430      0.23666341      0.50163305
O              19.83229647     10.36951306      5.04233729       8      1.07058553     -1.04346061     -0.11392797       0       0       0     139      0.54181157      0.62996541      0.90738488     -1.42955940    F      1.81394642     -1.26214093     -5.01932180      0.08503770     -0.10345781     -0.21200230      0.06380468      0.12371487      0.32913376      0.06380468      0.12371487      0.32913376      0.06633911      0.12138897      0.32157054