7631
OrigWidth=240.37853149 OrigHeight=67.43324632 cell_origin="-127.68926575    -41.21662316     -9.93808612" strain=0.10000000 is_cracked=F n_efield_old=3 energy=-146097.02181474 cutoff=10.58354498 nneightol=1.20000000 pbc="T T T" Lattice="255.37853149       0.00000000       0.00000000       0.00000000      82.43324632       0.00000000       0.00000000       0.00000000      19.87617225" Properties=species:S:1:pos:R:3:Z:I:1:dipoles:R:3:clamp_mask:I:1:pos_orig:R:3:map_shift:I:3:n_neighb:I:1:force:R:3:charge:R:1:fixdip:L:1:efield:R:3:efield_old1:R:3:efield_old2:R:3:efield_old3:R:3
Si            103.43876304     77.14760409      8.92481467      14      0.00000000      0.00000000      0.00000000       1    103.31644000     77.97679332      8.92185886       0      -1       0      82      0.10184657     -0.65613588      0.00294259      2.85911880    F     -1.12957001     -3.83692077     -1.28077300     -0.06039417     -2.12740287     -0.21378039     -0.06039417     -2.12740287     -0.21378039     -0.06052840     -2.12736068     -0.21381193
Si              8.77864316     77.52804257      9.08541909      14      0.00000000      0.00000000      0.00000000       0      7.64990010     76.39487832      9.12643311       0      -1       0      52      0.01968974      0.02851065      0.00091311      2.85911880    F      2.12700863     -4.06885319     -2.19252476      0.71027460     -1.95999803     -0.28402261      0.71027460     -1.95999803     -0.28402261      0.71090034     -1.95994622     -0.28384632
Si             11.80045095     77.36133961      9.11815032      14      0.00000000      0.00000000      0.00000000       0     10.13499220     76.48299625      9.14243706       0      -1       0      66      0.02100731      0.02323649      0.00095003      2.85911880    F     -1.71467376     -4.24277093     -1.67127614     -0.54346814     -2.27246645     -0.11696051     -0.54346814     -2.27246645     -0.11696051     -0.54387183     -2.27242170     -0.11689040
Si             31.28078299     78.27444593      9.32436525      14      0.00000000      0.00000000      0.00000000       1     31.28738353     78.26848668      9.32277010       0      -1       0      75     -0.00527414      0.00531290      0.00103920      2.85911880    F     -0.90723923     -3.56743672     -1.39884033      0.13100407     -1.76687837     -0.40228604      0.13100407     -1.76687837     -0.40228604      0.13107363     -1.76683612     -0.40230524
Si             28.27415144     78.75842821      9.31708463      14      0.00000000      0.00000000      0.00000000       1     28.27861547     78.75630089      9.31536705       0      -1       0      73     -0.00385811      0.00208269      0.00118752      2.85911880    F      0.18441622     -3.95508387     -1.39609479     -0.50480511     -1.81692339     -0.41569967     -0.50480511     -1.81692339     -0.41569967     -0.50480488     -1.81686146     -0.41575451
Si            100.40269161     77.53328653      8.92215880      14      0.00000000      0.00000000      0.00000000       1    100.26409159     78.20484996      8.92875677       0      -1       0      89      0.11561232     -0.53025671     -0.00493916      2.85911880    F      0.27837555     -4.19548821     -1.21103178     -0.49491174     -2.07240373     -0.25048298     -0.49491174     -2.07240373     -0.25048298     -0.49480135     -2.07237500     -0.25044832
Si             96.04859402     74.22360342      9.00984938      14      0.00000000      0.00000000      0.00000000       1     95.82538526     74.75788216      9.02253423       0      -1       0     118      0.18142189     -0.41894052     -0.00954489      2.85911880    F      0.65370809     -1.21573259     -1.59139227      0.40172388     -1.30239276     -1.16379165      0.40172388     -1.30239276     -1.16379165      0.40167312     -1.30230884     -1.16375354
Si             48.98353114     77.19153364      9.25907731      14      0.00000000      0.00000000      0.00000000       1     48.97860795     77.18802331      9.25888899       0      -1       0      86      0.00532283      0.00215386      0.00021801      2.85911880    F      0.11190180     -3.62308416     -0.87790192     -0.08828276     -2.05138986     -0.11862945     -0.08828276     -2.05138986     -0.11862945     -0.08822470     -2.05143380     -0.11861868
Si             93.66149581     76.02711497      8.93775896      14      0.00000000      0.00000000      0.00000000       1     93.36696341     76.57199955      8.94652763       0      -1       0      99      0.23486830     -0.43152005     -0.00667838      2.85911880    F     -0.36130815     -3.53831736     -0.79743735     -0.19167970     -1.88337899     -0.08353727     -0.19167970     -1.88337899     -0.08353727     -0.19178218     -1.88346062     -0.08357964
Si             99.05026126     74.87599085      9.00535226      14      0.00000000      0.00000000      0.00000000       1     98.79276213     75.40919474      9.01475943       0      -1       0     104      0.20844587     -0.41919859     -0.00689532      2.85911880    F     -0.23654436     -1.19464450     -1.57057860     -0.19323266     -1.42312473     -1.31941215     -0.19323266     -1.42312473     -1.31941215     -0.19311504     -1.42298084     -1.31939995
Si            110.37595559     75.31485698      8.95725593      14      0.00000000      0.00000000      0.00000000       1    110.25222611     76.10377403      8.97191427       0      -1       0      99      0.10361154     -0.62861551     -0.01212487      2.85911880    F      0.06886006     -3.92066465     -1.12406351     -0.63123740     -2.05681207     -0.37469088     -0.63123740     -2.05681207     -0.37469088     -0.63124597     -2.05661582     -0.37474029
Si            113.44063005     75.39226492      8.97241499      14      0.00000000      0.00000000      0.00000000       1    113.27047752     76.25866020      8.98829867       0      -1       0      93      0.14066037     -0.69495198     -0.01292857      2.85911880    F      0.16551699     -3.46323864     -1.27128194      0.57984052     -1.70915227     -0.36619949      0.57984052     -1.70915227     -0.36619949      0.58011938     -1.70905310     -0.36625893
Si            122.94243331     75.79908260      9.03877001      14      0.00000000      0.00000000      0.00000000       1    122.94243331     77.17882814      9.03877001       0      -1       0      90      1.33616964     -1.11398017      0.57607101      2.85911880    F      0.37643315     -3.41456527     -1.14530843      0.90255640     -1.78031520     -0.46534283      0.90255640     -1.78031520     -0.46534283      0.90262571     -1.78041417     -0.46534152
Si             22.12106435     73.17177571      9.24034604      14      0.00000000      0.00000000      0.00000000       1     22.19744849     73.14536079      9.22075484       0      -1       0     129     -0.05716802      0.01924016      0.01518582      2.85911880    F     -1.00848928      1.60639922     -1.97253666     -1.36148582      0.46482593     -0.53886266     -1.36148582      0.46482593     -0.53886266     -1.36151410      0.46460392     -0.53889482
Si             23.88070510     75.41403067      9.25271207      14      0.00000000      0.00000000      0.00000000       1     23.87814912     75.42862730      9.24563800       0      -1       0     120      0.00274107     -0.01213082      0.00512724      2.85911880    F      1.76041552     -1.76684746     -0.95472501      0.67414714     -0.81033709     -0.27441998      0.67414714     -0.81033709     -0.27441998      0.67406153     -0.81028199     -0.27435872
Si             57.16974868     76.30456515      9.19099511      14      0.00000000      0.00000000      0.00000000       1     57.15419225     76.31049459      9.19035063       0      -1       0     100      0.01475525     -0.00540055      0.00070963      2.85911880    F     -0.81810505     -4.02528730     -0.95565093      0.22676740     -2.41340511     -0.39660174      0.22676740     -2.41340511     -0.39660174      0.22661364     -2.41348419     -0.39657765
Si             64.19717602     76.21464205      9.09415263      14      0.00000000      0.00000000      0.00000000       1     64.12855251     76.25993683      9.09418013       0      -1       0     102      0.05690772     -0.03666990     -0.00009998      2.85911880    F      0.75127673     -3.36739894     -0.66586691      0.09725872     -2.03185559     -0.09773704      0.09725872     -2.03185559     -0.09773704      0.09735250     -2.03180862     -0.09771354
Si             67.20957304     76.25276585      9.15988603      14      0.00000000      0.00000000      0.00000000       1     67.13875183     76.31839619      9.15943504       0      -1       0      99      0.05882541     -0.05381608      0.00032232      2.85911880    F      0.80018308     -1.84532797     -1.55977593      0.44831339     -1.83208493     -1.17997796      0.44831339     -1.83208493     -1.17997796      0.44826285     -1.83211205     -1.17998250
Si             69.48263395     78.09594516      9.07022883      14      0.00000000      0.00000000      0.00000000       1     69.40671095     78.17371532      9.07069520       0      -1       0      73      0.06058811     -0.06059755     -0.00045023      2.85911880    F     -1.54829631     -3.50104146     -1.25995206     -1.22857698     -1.41321440     -0.44650589     -1.22857698     -1.41321440     -0.44650589     -1.22859604     -1.41306349     -0.44651879
Si             72.15479770     76.70824360      9.06507405      14      0.00000000      0.00000000      0.00000000       1     72.08892679     76.80640039      9.06122812       0      -1       0      97      0.05231651     -0.07760670      0.00304797      2.85911880    F     -0.18245743     -2.93805329     -0.99817270      0.36534086     -1.76129349     -0.35465825      0.36534086     -1.76129349     -0.35465825      0.36542537     -1.76128671     -0.35462986
Si             26.74834941     76.23539575      9.35402928      14      0.00000000      0.00000000      0.00000000       1     26.75592659     76.23948215      9.34973037       0      -1       0     106     -0.00485089     -0.00310438      0.00313585      2.85911880    F      0.72264225     -1.98811646     -1.46825086      0.55278009     -1.94157060     -1.36149455      0.55278009     -1.94157060     -1.36149455      0.55274680     -1.94161965     -1.36159387
Si             54.28028167     77.15243004      9.23957423      14      0.00000000      0.00000000      0.00000000       1     54.26281239     77.15461779      9.23918569       0      -1       0      93      0.01621946     -0.00243256      0.00047566      2.85911880    F     -1.00545142     -2.79430379     -1.17359569     -0.85817697     -1.12699268     -0.45085783     -0.85817697     -1.12699268     -0.45085783     -0.85814128     -1.12706944     -0.45083870
Si            127.87687807     72.92503442      9.14353548      14      0.00000000      0.00000000      0.00000000       0    127.87687807     74.54711266      9.14353548      -1      -1       0     115     -0.66489956     -0.01462413      0.21526687      2.85911880    F      0.27079962     -1.08361748     -1.48531814      0.10384374     -0.77827536     -1.05463950      0.10384374     -0.77827536     -1.05463950      0.10376166     -0.77834331     -1.05462488
Si             51.63023819     75.76520962      9.31100056      14      0.00000000      0.00000000      0.00000000       1     51.62101406     75.75480989      9.31140033       0      -1       0     104      0.00902358      0.00860131     -0.00029432      2.85911880    F     -0.29999561     -1.90831122     -1.51993459     -0.30156699     -1.99105635     -1.40425429     -0.30156699     -1.99105635     -1.40425429     -0.30160504     -1.99105923     -1.40419015
Si             76.40779792     73.78791964      9.09290993      14      0.00000000      0.00000000      0.00000000       1     76.27794877     73.95823914      9.09157714       0      -1       0     116      0.10399511     -0.13421792      0.00104000      2.85911880    F      0.41674366     -1.13311010     -1.42810500      0.25178804     -1.63475887     -1.08763425      0.25178804     -1.63475887     -1.08763425      0.25190530     -1.63464023     -1.08757041
Si             78.34718920     75.98112127      9.00945551      14      0.00000000      0.00000000      0.00000000       1     78.21680592     76.13767318      9.01321487       0      -1       0      94      0.10570597     -0.12385231     -0.00298295      2.85911880    F     -1.33023352     -3.18298029     -1.00048044     -1.22769770     -1.64256222     -0.29456596     -1.22769770     -1.64256222     -0.29456596     -1.22772621     -1.64259729     -0.29454045
Si             81.34040853     75.57877173      9.00488625      14      0.00000000      0.00000000      0.00000000       1     81.20707150     75.81389564      9.00227159       0      -1       0      92      0.10829566     -0.18507065      0.00201085      2.85911880    F      0.60025697     -2.99260218     -1.01202047      0.86222526     -1.58138925     -0.36109211      0.86222526     -1.58138925     -0.36109211      0.86220722     -1.58131976     -0.36108698
Si            118.33683410     72.88546173      9.06616357      14      0.00000000      0.00000000      0.00000000       1    118.33683410     73.92137840      9.06616357       0      -1       0     114      0.85959824     -0.83740427      0.51308767      2.85911880    F     -0.18116215     -1.14083370     -1.56910717     -0.08838330     -1.66642918     -1.30503879     -0.08838330     -1.66642918     -1.30503879     -0.08832343     -1.66648581     -1.30504311
Si            119.96664480     75.44148642      9.02847669      14      0.00000000      0.00000000      0.00000000       1    119.96664480     76.65454902      9.02847669       0      -1       0      91     -0.85734653     -0.97913910      0.26349183      2.85911880    F      0.15364331     -3.39639547     -0.95696570     -0.50938937     -1.91359274     -0.38128804     -0.50938937     -1.91359274     -0.38128804     -0.50935336     -1.91358935     -0.38128457
Si             32.47899747     75.53094137      9.37354268      14      0.00000000      0.00000000      0.00000000       1     32.48576571     75.52457306      9.37367413       0      -1       0     100     -0.00747909      0.00473875     -0.00012049      2.85911880    F     -0.65625868     -1.59838822     -1.57502896     -0.48456018     -1.75390823     -1.48921666     -0.48456018     -1.75390823     -1.48921666     -0.48458095     -1.75392860     -1.48921015
Si             35.49124212     75.13662029      9.29199129      14      0.00000000      0.00000000      0.00000000       1     35.49828139     75.12888504      9.29267065       0      -1       0     102     -0.00754503      0.00637197     -0.00062172      2.85911880    F     -1.06933349     -3.00382869     -0.57073661     -0.27127629     -1.97914878     -0.11471390     -0.27127629     -1.97914878     -0.11471390     -0.27140307     -1.97912424     -0.11470545
Si             60.38326692     72.08026764      9.20801150      14      0.00000000      0.00000000      0.00000000       0     60.34773257     72.10081664      9.20818355       0      -1       0     139      0.00324820     -0.00115672     -0.00000050      2.85911880    F      0.23409650     -0.79172414     -1.21651099      0.31837814     -1.00204553     -1.12375789      0.31837814     -1.00204553     -1.12375789      0.31833374     -1.00211977     -1.12376494
Si             88.16431371     74.95205643      8.96708543      14      0.00000000      0.00000000      0.00000000       1     87.88511752     75.32325068      8.97317891       0      -1       0      97      0.22281100     -0.29228193     -0.00487028      2.85911880    F      0.27649442     -3.12734768     -0.59000022     -0.01585114     -1.74660354     -0.13557154     -0.01585114     -1.74660354     -0.13557154     -0.01572380     -1.74650052     -0.13558171
Si            106.00856854     71.93175144      9.03623707      14      0.00000000      0.00000000      0.00000000       0    105.87676124     72.46910390      9.04160319       0      -1       0     129      0.00475026      0.00646754     -0.00014821      2.85911880    F      0.10818133     -0.62184573     -1.58447735     -0.25027424     -1.01029335     -0.87588487     -0.25027424     -1.01029335     -0.87588487     -0.25030960     -1.01019008     -0.87591109
Si             16.67327026     74.98800920      9.16845398      14      0.00000000      0.00000000      0.00000000       1     16.85478180     75.12669500      9.15307979       0      -1       0     106     -0.13828181     -0.10654861      0.01197249      2.85911880    F      0.18139678     -3.21243829     -0.46460618      0.49091562     -2.00608997     -0.11030091      0.49091562     -2.00608997     -0.11030091      0.49057468     -2.00605384     -0.11018176
Si             43.81210022     75.08997010      9.27033843      14      0.00000000      0.00000000      0.00000000       1     43.81316001     75.06969054      9.26982862       0      -1       0     105     -0.00016228      0.01818730      0.00047575      2.85911880    F      1.14993432     -3.13236392     -0.56525298      0.28891144     -1.78607117     -0.11102874      0.28891144     -1.78607117     -0.11102874      0.28894739     -1.78600014     -0.11103212
Si             46.80794412     75.24584170      9.34404750      14      0.00000000      0.00000000      0.00000000       1     46.80888225     75.23543987      9.34465092       0      -1       0     106     -0.00025610      0.00823496     -0.00044170      2.85911880    F      0.74951739     -1.75168803     -1.41362390      0.62263074     -1.80396333     -1.21262293      0.62263074     -1.80396333     -1.21262293      0.62268880     -1.80393412     -1.21261332
Si             83.09521509     73.17695338      9.05805700      14      0.00000000      0.00000000      0.00000000       1     82.89787083     73.39350532      9.06046882       0      -1       0     114      0.15863955     -0.17067520     -0.00172997      2.85911880    F     -0.28545802     -1.66626119     -1.41160589     -0.08238164     -1.59563510     -1.29429153     -0.08238164     -1.59563510     -1.29429153     -0.08224574     -1.59563776     -1.29434980
Si             91.12156547     74.49853515      9.03965210      14      0.00000000      0.00000000      0.00000000       1     90.84329585     74.98945282      9.04160086       0      -1       0     106      0.22233989     -0.38909293     -0.00138777      2.85911880    F      0.79703287     -1.52476011     -1.55209224      0.64412202     -1.50374142     -1.08916733      0.64412202     -1.50374142     -1.08916733      0.64406358     -1.50376375     -1.08912612
Si            101.21070122     72.71007137      9.03028019      14      0.00000000      0.00000000      0.00000000       0    101.06424081     73.22885802      9.03741045       0      -1       0     127      0.00641426      0.01122898      0.00013139      2.85911880    F      0.85430982     -0.18169021     -1.53847479      0.54206142     -0.92986924     -0.62123519      0.54206142     -0.92986924     -0.62123519      0.54196818     -0.92979677     -0.62121107
Si            103.92130910     74.21166426      9.01573743      14      0.00000000      0.00000000      0.00000000       1    103.73309040     74.84343907      9.02692694       0      -1       0     108      0.15758652     -0.49729339     -0.00874549      2.85911880    F     -0.95433133     -1.89954640     -1.46459235     -0.45583112     -1.74976996     -1.00632828     -0.45583112     -1.74976996     -1.00632828     -0.45556801     -1.74973742     -1.00641475
Si            109.01974977     72.64263336      9.03002367      14      0.00000000      0.00000000      0.00000000       1    108.81502655     73.30331089      9.04239355       0      -1       0     114      0.17003998     -0.52669053     -0.01012877      2.85911880    F     -0.43998824     -1.61478312     -1.39980762     -0.42446772     -1.65221794     -1.28889536     -0.42446772     -1.65221794     -1.28889536     -0.42432761     -1.65229662     -1.28881729
Si             14.44382755     72.95188788      9.22187929      14      0.00000000      0.00000000      0.00000000       1     14.64298901     73.00228681      9.22237110       0      -1       0     125     -0.15528984     -0.03517948     -0.00027638      2.85911880    F      0.30272989     -1.00205811     -1.53426821      0.22017931     -1.41641829     -1.10601609      0.22017931     -1.41641829     -1.10601609      0.22063105     -1.41653253     -1.10593200
Si             19.24201252     73.77968752      9.23955914      14      0.00000000      0.00000000      0.00000000       1     19.30709548     73.79728343      9.22249886       0      -1       0     124     -0.04755380     -0.01049685      0.01328019      2.85911880    F      0.83143315     -1.65119358     -1.29271740      0.95250658     -1.37073499     -0.68934205      0.95250658     -1.37073500     -0.68934205      0.95288125     -1.37070174     -0.68944278
Si             63.01341147     73.54465298      9.18620475      14      0.00000000      0.00000000      0.00000000       1     62.96778304     73.57755072      9.18615528       0      -1       0     127      0.03894179     -0.02654278      0.00000226      2.85911880    F      0.10669930     -1.27150415     -1.13392934      0.20016911     -1.54019705     -1.09605224      0.20016911     -1.54019705     -1.09605224      0.20016887     -1.54020076     -1.09607190
Si              8.74668780     74.51726849      9.18874304      14      0.00000000      0.00000000      0.00000000       0      9.11105376     73.46578020      9.11493552       0      -1       0      75      0.01259449      0.02991562      0.00024572      2.85911880    F      1.30426557      0.06990821     -1.79769462      1.41930260     -0.21408289     -1.30645190      1.41930259     -0.21408289     -1.30645190      1.41924836     -0.21391066     -1.30663712
Si             68.18094000     73.35930268      9.14833745      14      0.00000000      0.00000000      0.00000000       0     68.08366647     73.41694414      9.14723832       0      -1       0     120      0.00325731     -0.00080288     -0.00010546      2.85911880    F     -0.22604583     -0.63517116     -1.23444509     -0.33130916     -1.22134070     -0.83336049     -0.33130916     -1.22134070     -0.83336049     -0.33126342     -1.22138705     -0.83339992
Si             73.34159878     73.94528427      9.10660186      14      0.00000000      0.00000000      0.00000000       1     73.22397740     74.02332922      9.10699310       0      -1       0     123      0.09388399     -0.06163897     -0.00040138      2.85911880    F     -0.47794262     -1.09644003     -1.50974605     -0.38823645     -1.42779577     -1.46415475     -0.38823645     -1.42779577     -1.46415475     -0.38839742     -1.42770990     -1.46409227
Si            115.26962139     72.97091140      9.05173779      14      0.00000000      0.00000000      0.00000000       1    115.26962139     73.86619285      9.05173779       0      -1       0     113     -0.98716005     -0.72164226     -0.28726361      2.85911880    F      0.68659864     -1.62190357     -1.59484640      0.46338490     -1.68557159     -1.20068603      0.46338490     -1.68557159     -1.20068603      0.46349728     -1.68565114     -1.20063984
Si            120.23550625     70.34852491      9.08626669      14      0.00000000      0.00000000      0.00000000       0    120.23550625     71.35793039      9.08626669       0      -1       0     141     -1.77628872     -0.00962286      0.35720926      2.85911880    F      1.41047744     -0.38195963     -1.47129381      0.65998976     -0.96107034     -0.65710818      0.65998976     -0.96107034     -0.65710818      0.65994744     -0.96106505     -0.65713287
Si             92.28278727     71.62699054      9.03886795      14      0.00000000      0.00000000      0.00000000       0     91.88194452     71.95309705      9.04401103       0      -1       0     133      0.00210942      0.00466778      0.00017865      2.85911880    F      0.09585858     -1.04019584     -1.32877306      0.18406583     -1.11358642     -0.99429723      0.18406583     -1.11358642     -0.99429723      0.18398253     -1.11365902     -0.99423793
Si             11.78897816     74.38274173      9.20463372      14      0.00000000      0.00000000      0.00000000       0     11.86463514     74.18766413      9.21799872       0      -1       0      92      0.01495778      0.02596047      0.00044120      2.85911880    F      0.38531695     -0.36453927     -1.61571593      0.12151679     -0.66045052     -1.30399206      0.12151679     -0.66045052     -1.30399206      0.12156381     -0.66046262     -1.30436319
Si             44.86261319     70.69889396      9.31046590      14      0.00000000      0.00000000      0.00000000       0     44.87109267     70.66581733      9.31155148       0      -1       0     144     -0.00044236      0.00099635     -0.00012928      2.85911880    F      0.42541514     -0.19829774     -1.07681202      0.48976756     -0.59969749     -0.79095058      0.48976756     -0.59969749     -0.79095058      0.48972182     -0.59968791     -0.79087328
Si             86.14514984     72.74864835      9.05718825      14      0.00000000      0.00000000      0.00000000       1     85.95046973     73.09830967      9.05438257       0      -1       0     126      0.15667589     -0.27555221      0.00242276      2.85911880    F      0.16654955     -1.00977392     -1.51551055      0.05901533     -1.48727483     -1.12826896      0.05901533     -1.48727483     -1.12826896      0.05881613     -1.48728433     -1.12830825
Si             27.82664016     73.40215908      9.33127237      14      0.00000000      0.00000000      0.00000000       0     27.82199921     73.40120074      9.33099561       0      -1       0     126     -0.00173441     -0.00078990      0.00005647      2.85911880    F      0.19756028     -0.48029746     -1.30314493      0.11748727     -1.09202018     -1.04647279      0.11748727     -1.09202018     -1.04647279      0.11742602     -1.09208340     -1.04645482
Si             39.61261551     71.49072261      9.33306908      14      0.00000000      0.00000000      0.00000000       0     39.62191738     71.46837703      9.33347283       0      -1       0     133      0.00007124      0.00313112     -0.00004148      2.85911880    F      0.11394213     -0.83949968     -1.06364486      0.20275376     -1.06849117     -1.00935275      0.20275376     -1.06849117     -1.00935275      0.20269460     -1.06849975     -1.00934247
Si            123.19725985     70.75370788      9.10385690      14      0.00000000      0.00000000      0.00000000       0    123.19725985     71.89214499      9.10385690       0      -1       0     140      0.98012921     -0.01059421      0.52626229      2.85911880    F     -0.92835655     -0.55829836     -1.43297716     -0.34971883     -1.02666670     -0.69636545     -0.34971883     -1.02666670     -0.69636545     -0.34970775     -1.02671814     -0.69637390
Si              6.36424217     72.73349325      9.10121351      14      0.00000000      0.00000000      0.00000000       0      6.38097979     72.32863894      9.15178368       0      -1       0      72      0.02416472      0.01700746      0.00158415      2.85911880    F      3.38265237     -0.56700665     -1.38311024      1.38328279      0.17584476     -0.63156515      1.38328279      0.17584476     -0.63156515      1.38366687      0.17531426     -0.63143136
Si             30.86495375     72.93776198      9.33536543      14      0.00000000      0.00000000      0.00000000       0     30.86496579     72.93601050      9.33514501       0      -1       0     135     -0.00181779     -0.00060387      0.00000530      2.85911880    F     -0.14541333     -0.86134682     -1.35093288     -0.09448656     -1.11438246     -1.17411193     -0.09448656     -1.11438246     -1.17411193     -0.09455489     -1.11440727     -1.17415628
Si             36.78411688     72.50571579      9.34417101      14      0.00000000      0.00000000      0.00000000       1     36.79882345     72.50041257      9.34491762       0      -1       0     131     -0.01233831      0.00519973     -0.00062095      2.85911880    F      0.19762094     -1.45235825     -1.07500109      0.23570955     -1.66774400     -1.32272424      0.23570955     -1.66774400     -1.32272424      0.23571135     -1.66775229     -1.32272452
Si             42.42769669     72.46932388      9.32785339      14      0.00000000      0.00000000      0.00000000       1     42.44069925     72.44019327      9.32777529       0      -1       0     128     -0.01019502      0.02563980      0.00005531      2.85911880    F     -0.17520112     -1.21958232     -1.13108514     -0.05795210     -1.34742164     -1.33237138     -0.05795210     -1.34742164     -1.33237138     -0.05793752     -1.34738896     -1.33237004
Si             23.01656809     70.39326584      9.26111526      14      0.00000000      0.00000000      0.00000000       0     23.04009472     70.36705520      9.26006218       0      -1       0     153     -0.00185310     -0.00248175      0.00002094      2.85911880    F      1.22699810     -1.28377973     -0.86897131      1.32596906     -1.17479535      0.14408255      1.32596906     -1.17479535      0.14408255      1.32617718     -1.17485497      0.14402484
Si             52.05020471     72.81513231      9.27986738      14      0.00000000      0.00000000      0.00000000       0     52.01517807     72.80743041      9.27992533       0      -1       0     132      0.00369656      0.00004588      0.00005061      2.85911880    F      0.54200217     -0.61440136     -1.24243556      0.46424933     -1.04472008     -0.75219094      0.46424933     -1.04472008     -0.75219094      0.46434596     -1.04466594     -0.75211032