7631
energy=-145789.95598761 n_efield_old=3 cutoff=10.58354498 nneightol=1.20000000 pbc="T T T" Lattice="255.37853149       0.00000000       0.00000000       0.00000000      82.43324632       0.00000000       0.00000000       0.00000000      19.87617225" Properties=species:S:1:pos:R:3:Z:I:1:momenta:R:3:map_shift:I:3:n_neighb:I:1:force:R:3:charge:R:1:fixdip:L:1:efield:R:3:dipoles:R:3:efield_old1:R:3:efield_old2:R:3:efield_old3:R:3
Si            103.42456832     77.16610240      8.91260007      14      0.20763184     -0.08809893      1.17855658       0      -1       0      83      1.32981258     -0.12598022      0.14312165      2.85911880    F     -0.57187413     -3.20956699     -1.32803229      0.00000000      0.00000000      0.00000000      0.03099330     -2.32538658     -0.24743674      0.03099330     -2.32538658     -0.24743674      0.01738398     -2.31710220     -0.24384575
Si              8.79521582     77.81762962      9.08693597      14      0.00000000      0.03993496      0.00000000       0      -1       0      51      0.14842010      1.18065264      0.21699580      2.85911880    F      1.91870588     -4.26713794     -2.09347506      0.00000000      0.00000000      0.00000000      1.07672014     -2.23475857     -0.08716393      1.07672014     -2.23475857     -0.08716393      1.10379024     -2.19641085     -0.07694829
Si             11.71559034     77.59395623      9.12581942      14      2.01698770      1.05099259     -0.57617911       0      -1       0      64      2.30952033      0.08613029     -0.64157107      2.85911880    F     -2.36324635     -3.93103055     -1.20927946      0.00000000      0.00000000      0.00000000     -0.99359750     -2.51990264      0.05546286     -0.99359750     -2.51990264      0.05546286     -0.97797747     -2.53277899      0.04965254
Si             31.32741473     78.52971271      9.28154829      14     -0.39528675     -0.11842746      1.12079165       0      -1       0      72      0.32212505      0.96096189     -1.03686270      2.85911880    F     -1.36945542     -3.84235987     -1.13694625      0.00000000      0.00000000      0.00000000      0.43808328     -2.45077015     -0.24337816      0.43808328     -2.45077015     -0.24337816      0.43753223     -2.45403245     -0.30339377
Si             28.41060471     78.93200557      9.39837892      14     -0.59978329      0.39000020     -0.23010150       0      -1       0      73     -2.44133810     -1.67735709      1.37312047      2.85911880    F      0.73926549     -3.57636380     -1.90242589      0.00000000      0.00000000      0.00000000     -0.09541545     -2.06142815      0.08195246     -0.09541545     -2.06142815      0.08195246     -0.06046368     -2.07482589      0.05739231
Si            100.46423340     77.76452550      8.91411196      14      0.71621883     -0.50485652     -0.49096531       0      -1       0      88      0.43195874     -1.91165671      0.48005495      2.85911880    F      0.98973580     -4.79901348     -1.60435431      0.00000000      0.00000000      0.00000000     -0.51088512     -2.26055041     -0.47159032     -0.51088512     -2.26055041     -0.47159032     -0.50643746     -2.24822521     -0.46899117
Si             96.15146563     74.35836400      8.96520544      14     -0.50155836      0.87586261      1.00642698       0      -1       0     118      1.50294640      0.74333845      2.55428249      2.85911880    F      0.46607124     -1.04069333     -1.78790224      0.00000000      0.00000000      0.00000000      0.46167496     -1.13038669     -1.66888889      0.46167496     -1.13038669     -1.66888889      0.46681540     -1.11895693     -1.67027530
Si             48.90322101     77.15227432      9.31833277      14      0.22649937      0.00498492     -0.30545185       0      -1       0      87      0.12633793     -0.52501344      0.02972110      2.85911880    F     -0.24337251     -3.49877616     -1.24159406      0.00000000      0.00000000      0.00000000     -0.58446987     -1.83759507     -0.45749881     -0.58446987     -1.83759507     -0.45749881     -0.58247357     -1.82393645     -0.47706760
Si             93.71862846     76.07922340      8.94639257      14     -1.39321272      1.20131677      0.29770013       0      -1       0      98     -0.73486291     -0.46311247     -0.31104474      2.85911880    F     -0.16480461     -3.56989401     -0.04144340      0.00000000      0.00000000      0.00000000      0.25186087     -1.92294285     -0.27396955      0.25186087     -1.92294285     -0.27396955      0.28415081     -1.92133362     -0.24255229
Si             99.14911356     75.09522088      8.91592226      14      0.20610434      0.86863783      1.93756143       0      -1       0      99     -1.53397142     -1.95517800      0.41113023      2.85911880    F     -0.39505782     -0.77125484     -1.19222362      0.00000000      0.00000000      0.00000000     -0.58824169     -0.96753412     -1.32243291     -0.58824169     -0.96753412     -1.32243291     -0.65068930     -0.98063488     -1.35039466
Si            110.41959782     75.28322347      9.05495943      14     -0.58482251     -0.33745738     -0.01554017       0      -1       0     103      2.00939756     -0.43486550      0.61370022      2.85911880    F     -0.23506949     -4.31621372     -1.16151788      0.00000000      0.00000000      0.00000000     -0.47465507     -2.13022992     -0.35149453     -0.47465507     -2.13022992     -0.35149453     -0.47059680     -2.13837431     -0.34080497
Si            113.58100380     75.38265809      8.99823023      14     -0.97618727     -0.09720262     -1.71892929       0      -1       0      98     -0.21585492     -0.50612404      0.48222029      2.85911880    F      0.08302946     -2.96279539     -1.52852595      0.00000000      0.00000000      0.00000000      0.67089729     -1.86928424     -0.81478620      0.67089729     -1.86928424     -0.81478620      0.73380649     -1.91150837     -0.80120406
Si            123.13541065     75.98582645      9.05354968      14     -0.87281819      1.22582216     -0.34327679       0      -1       0      89     -1.33449247      0.05882320     -0.79143554      2.85911880    F      0.29455972     -3.62233137     -1.28812427      0.00000000      0.00000000      0.00000000      1.04608230     -1.78160187     -0.15678083      1.04608230     -1.78160187     -0.15678083      1.06279768     -1.80001717     -0.10581091
Si             22.20461878     73.24327208      9.13631572      14      0.27693504     -0.98579830      0.70201633       0      -1       0     132     -0.31226840      0.10884112     -0.49326469      2.85911880    F     -0.81052327      1.85658825     -1.85285618      0.00000000      0.00000000      0.00000000     -1.30990584      0.63231650     -0.40670691     -1.30990584      0.63231650     -0.40670692     -1.32011719      0.61130410     -0.40808789
Si             23.89314930     75.53139908      9.32149983      14      0.54129814     -0.45656052     -0.76527360       0      -1       0     120      2.20865091      0.59072298     -0.14658512      2.85911880    F      1.84473125     -2.41948237     -1.54121686      0.00000000      0.00000000      0.00000000      0.45390657     -1.00432366     -0.37649385      0.45390657     -1.00432366     -0.37649385      0.46218988     -0.99181105     -0.36593022
Si             57.16760687     76.37474244      9.17250535      14      1.90302399     -0.27489397      0.16002107       0      -1       0     100      1.53961240     -0.96789758     -0.06843103      2.85911880    F     -0.90495373     -4.00010605     -1.04502789      0.00000000      0.00000000      0.00000000      0.24780037     -2.14193374     -0.46336050      0.24780037     -2.14193374     -0.46336050      0.26019141     -2.15137215     -0.44555464
Si             64.23385117     76.35309035      9.06754516      14     -0.09177375     -0.20524987     -0.82209968       0      -1       0      99      1.18288566     -0.89371532      0.28660544      2.85911880    F      1.04994277     -4.15664266     -1.54669910      0.00000000      0.00000000      0.00000000     -0.27659164     -1.99790752     -0.62073063     -0.27659164     -1.99790752     -0.62073063     -0.27813940     -1.98788603     -0.60220985
Si             67.30290166     76.17555883      9.11693126      14      0.87094170      0.20819776      0.06741625       0      -1       0      99      0.84396758     -1.07424685      0.08389013      2.85911880    F      0.78274940     -1.53920946     -1.49523655      0.00000000      0.00000000      0.00000000      0.42213612     -1.39667552     -0.81402585      0.42213612     -1.39667552     -0.81402585      0.38475758     -1.41744068     -0.81667029
Si             69.50789875     78.02447943      8.97438146      14     -0.25568763     -0.16358213     -1.67256656       0      -1       0      74     -0.07669913     -0.02530148     -1.57942775      2.85911880    F     -1.51859409     -3.90556101     -1.03060670      0.00000000      0.00000000      0.00000000     -1.27686400     -0.66630617      0.16763857     -1.27686400     -0.66630617      0.16763857     -1.24767856     -0.67265204      0.16984478
Si             72.24018990     76.82959212      8.77947361      14     -0.73654280      0.69858967      0.76868756       0      -1       0      95      2.49273229     -3.18780956      2.21409819      2.85911880    F     -0.82336250     -2.42164803     -1.53842101      0.00000000      0.00000000      0.00000000      0.59453934     -1.66684122     -0.73615976      0.59453934     -1.66684122     -0.73615976      0.63096274     -1.66339263     -0.76779550
Si             26.79136386     76.30599443      9.35653331      14      0.02670091      1.50420659     -0.82077516       0      -1       0     108      0.42200396      0.64425133      0.82246730      2.85911880    F      0.24521490     -2.32985082     -1.44814564      0.00000000      0.00000000      0.00000000      0.88912207     -1.80830573     -1.29443419      0.88912207     -1.80830573     -1.29443419      0.91831305     -1.82770423     -1.28875760
Si             54.38348944     77.11550030      9.26500224      14      0.51697633     -0.09064214      0.04143408       0      -1       0      93     -3.20325548     -0.92790358     -0.02057029      2.85911880    F     -0.40754122     -2.49305090     -1.17145373      0.00000000      0.00000000      0.00000000     -0.12004648     -0.64868834     -0.54623017     -0.12004648     -0.64868834     -0.54623017     -0.14717048     -0.65289376     -0.53416358
Si            127.86574404     72.86399513      9.12496291      14     -0.23259150      0.67561316     -0.74307805      -1      -1       0     115     -0.78744433      0.11892824     -0.06228844      2.85911880    F      0.41400743     -1.06741558     -1.30962724      0.00000000      0.00000000      0.00000000      0.48927745     -0.50556170     -0.94487410      0.48927745     -0.50556170     -0.94487410      0.46297712     -0.51779137     -0.92989661
Si             51.68481204     75.72334989      9.31004340      14     -0.29585668     -0.15278861      0.67984767       0      -1       0     106     -0.11816548      0.49346041     -0.09256043      2.85911880    F      0.41483620     -2.16062224     -1.91189659      0.00000000      0.00000000      0.00000000      0.15687375     -1.68505394     -1.48250159      0.15687375     -1.68505394     -1.48250159      0.15183650     -1.70067760     -1.49897929
Si             76.38771938     73.90625453      9.03092642      14     -0.27420080      0.02535827      0.71752421       0      -1       0     116      1.36676748     -1.65608533     -0.08497388      2.85911880    F      0.03269784     -0.61598408     -1.20563640      0.00000000      0.00000000      0.00000000     -0.08282033     -1.51020839     -1.60924970     -0.08282033     -1.51020839     -1.60924970     -0.06856091     -1.49373051     -1.60240680
Si             78.36556244     76.08400834      9.02895167      14      0.64469783      0.61367328      0.28655304       0      -1       0      95     -0.10942047     -1.34107840     -0.13800430      2.85911880    F     -1.27950853     -2.95635396     -1.51101496      0.00000000      0.00000000      0.00000000     -1.06725449     -1.42893936     -0.60834498     -1.06725449     -1.42893936     -0.60834498     -1.08849851     -1.43901546     -0.61052499
Si             81.37837131     75.53352758      9.03708654      14      1.13646486      1.39352315     -0.13587021       0      -1       0      92     -1.01704794     -0.20403342     -0.12437384      2.85911880    F      0.79322189     -3.03803283     -1.23849167      0.00000000      0.00000000      0.00000000      1.41519812     -1.32127027     -0.27704840      1.41519812     -1.32127027     -0.27704840      1.40093113     -1.34288950     -0.26162508
Si            118.58202522     73.07395449      9.05341023      14      0.25636048     -1.53144539     -0.71036526       0      -1       0     112     -1.39529108     -0.66342723      0.63483279      2.85911880    F     -0.11400820     -1.04088299     -1.60750411      0.00000000      0.00000000      0.00000000     -0.15024613     -1.84321894     -1.48395526     -0.15024613     -1.84321894     -1.48395526     -0.21113833     -1.85639016     -1.46928506
Si            120.06273565     75.71435413      8.95858598      14      1.36959807     -0.78202031     -0.78259467       0      -1       0      87      0.18142406     -0.96440312     -0.26877494      2.85911880    F      0.60738022     -3.60721126     -1.00670410      0.00000000      0.00000000      0.00000000     -0.61160336     -2.01499770      0.01552491     -0.61160336     -2.01499770      0.01552491     -0.60548632     -1.99018940      0.05211666
Si             32.51581304     75.84449958      9.26900112      14     -1.25515413      1.17161771     -1.71080138       0      -1       0     100     -0.17009748     -2.80687610     -0.35891270      2.85911880    F     -0.32604373     -1.12718183     -1.31470435      0.00000000      0.00000000      0.00000000      0.25275656     -1.28500866     -0.73859761      0.25275656     -1.28500866     -0.73859761      0.26553813     -1.32086075     -0.70300804
Si             35.50811279     75.27153253      9.21247214      14      0.52047389     -0.01163599      0.41783505       0      -1       0     102      1.02662824     -0.79161860      0.19402633      2.85911880    F     -1.11597515     -2.72277147     -0.77668698      0.00000000      0.00000000      0.00000000     -0.26344332     -2.00984871      0.58663166     -0.26344332     -2.00984871      0.58663166     -0.30455234     -1.97747987      0.56686768
Si             60.54968497     72.12307153      8.98731900      14     -1.09432964     -0.99113808      0.94983648       0      -1       0     141     -0.21224366     -0.74603389      1.88118424      2.85911880    F     -0.37021963     -0.42153433     -1.39914759      0.00000000      0.00000000      0.00000000     -0.00435110     -1.40273921     -1.19033791     -0.00435110     -1.40273921     -1.19033791      0.01928388     -1.38694072     -1.19036038
Si             88.25100402     74.96771818      8.89619138      14     -0.02298396     -0.21976228     -0.18859976       0      -1       0     100     -2.11688594      0.50105094     -0.00722688      2.85911880    F      0.08051703     -2.33320485     -0.55229301      0.00000000      0.00000000      0.00000000     -0.32955392     -2.00097363     -0.47471682     -0.32955392     -2.00097363     -0.47471682     -0.33681546     -1.98654194     -0.49950233
Si            106.12184690     72.01672075      8.91230988      14      1.19702678     -1.10328569     -0.69515618       0      -1       0     130      0.69137029      0.16111458     -0.30485353      2.85911880    F     -0.08642235     -1.05586721     -1.44354685      0.00000000      0.00000000      0.00000000     -0.41150203     -0.64723800     -1.12108244     -0.41150204     -0.64723800     -1.12108244     -0.43052208     -0.65880412     -1.09297185
Si             16.71132674     75.04765785      9.19663538      14     -0.15407919      1.31413588     -0.92487282       0      -1       0     106      0.69136197     -0.68478846      1.35833909      2.85911880    F      0.75264324     -3.17769237     -1.04906558      0.00000000      0.00000000      0.00000000     -0.04471702     -1.60799211     -0.52741333     -0.04471702     -1.60799211     -0.52741333     -0.05909498     -1.62487981     -0.49353936
Si             43.84211649     75.09932121      9.20270241      14      0.38396743      1.53530126      0.87574153       0      -1       0     106     -1.54088610      0.16168393     -0.73772337      2.85911880    F      0.73386645     -2.64463940     -0.55481840      0.00000000      0.00000000      0.00000000      0.11618371     -1.69143976     -0.04622923      0.11618372     -1.69143976     -0.04622923      0.06997093     -1.72258347     -0.06537338
Si             46.86244871     75.28155559      9.28849455      14      0.87155731     -0.21875160      0.47327361       0      -1       0     109     -0.61994289     -2.71172975     -0.52217957      2.85911880    F      1.38302160     -0.93862577     -1.29323911      0.00000000      0.00000000      0.00000000      1.56567880     -0.55996323     -1.17375868      1.56567880     -0.55996323     -1.17375868      1.52482244     -0.52354012     -1.17447949
Si             83.18172760     73.18412624      9.10869615      14      1.70530350      0.04814545     -1.24667173       0      -1       0     117     -0.50088228     -1.17005431      0.04757340      2.85911880    F     -0.08782429     -1.58258100     -1.21694276      0.00000000      0.00000000      0.00000000      0.06379449     -2.07693458     -1.04105270      0.06379449     -2.07693458     -1.04105270     -0.01252438     -2.04656785     -1.03661409
Si             91.19659327     74.53150086      9.04756896      14      2.05151184      0.01926746     -0.51462123       0      -1       0     109      2.12715804     -0.78861840      1.37266347      2.85911880    F      0.87876314     -1.39311873     -1.85437582      0.00000000      0.00000000      0.00000000      0.68362250     -0.79365780     -1.19347967      0.68362250     -0.79365780     -1.19347967      0.63986208     -0.79670276     -1.16576718
Si            101.29488355     72.76408271      8.95560206      14     -1.21989471      0.38184669      1.06148476       0      -1       0     131      0.77101765      0.49722728      0.69771792      2.85911880    F      1.04557040     -0.40693351     -2.01511105      0.00000000      0.00000000      0.00000000      0.74366442     -1.22604427     -0.40244106      0.74366442     -1.22604427     -0.40244106      0.72898506     -1.20967369     -0.41760766
Si            104.02116494     74.25504889      8.96266173      14      1.16174128      0.05790514     -0.41404039       0      -1       0     109      0.88640854      0.02673548     -1.10929086      2.85911880    F     -1.42268041     -1.85892611     -1.52495958      0.00000000      0.00000000      0.00000000     -0.91221210     -1.90162793     -0.77453758     -0.91221210     -1.90162793     -0.77453758     -0.90753263     -1.89690491     -0.74751640
Si            109.21717637     72.62965586      9.03972575      14     -0.11937910      1.42241146     -0.85698911       0      -1       0     115     -0.26389692     -0.92943469      0.81965190      2.85911880    F     -0.38693100     -0.90768018     -1.53879467      0.00000000      0.00000000      0.00000000     -0.60210711     -0.75397553     -1.57461780     -0.60210711     -0.75397553     -1.57461780     -0.59073384     -0.76536985     -1.56113357
Si             14.43518417     73.04396296      9.32060089      14      0.55282627     -0.53084226      1.12439108       0      -1       0     125      0.11181344      0.56108934     -1.19919600      2.85911880    F      0.30723602     -1.10284333     -1.23955633      0.00000000      0.00000000      0.00000000      0.09159313     -1.04370532     -1.01530427      0.09159313     -1.04370533     -1.01530427      0.12049554     -1.01320775     -1.03579884
Si             19.43225876     74.00870595      9.19183304      14      0.61098313      0.48092473      0.19591011       0      -1       0     125     -2.31428089      1.96469669      0.13553864      2.85911880    F      1.15829683     -2.11311424     -1.59037577      0.00000000      0.00000000      0.00000000      1.34143009     -1.36124835     -0.15071185      1.34143009     -1.36124835     -0.15071186      1.33801485     -1.37485671     -0.19246752
Si             63.20505225     73.57662789      9.03682826      14      1.22901088      0.63204291     -0.10496320       0      -1       0     129      2.90355887      0.08303332      1.59320664      2.85911880    F     -0.46982846     -1.58487263     -1.14126715      0.00000000      0.00000000      0.00000000      0.00256387     -1.17636334     -1.32724546      0.00256387     -1.17636334     -1.32724546     -0.02122179     -1.24374567     -1.31986230
Si              8.73781169     74.78580841      9.18952026      14     -0.00000000     -1.67811742     -0.00000000       0      -1       0      72     -0.13718023      0.70137526     -0.00445216      2.85911880    F      1.40228143     -0.44223368     -1.86154954      0.00000000      0.00000000      0.00000000      1.80829157      0.16086512     -1.44210377      1.80829157      0.16086512     -1.44210377      1.79903161      0.19070358     -1.43168679
Si             68.31600845     73.31967381      9.00779745      14     -0.70965317     -0.80743408     -0.78399075       0      -1       0     122     -1.72286479      1.10062248     -0.44554793      2.85911880    F     -0.29537936     -0.59749570     -1.37302077      0.00000000      0.00000000      0.00000000     -0.09026994     -1.74189342     -0.83322712     -0.09026994     -1.74189342     -0.83322711     -0.03890829     -1.73133365     -0.82592719
Si             73.40344210     73.96120068      8.98194941      14     -0.50196279      0.86598770     -1.61622841       0      -1       0     123      0.38285848      1.74706372     -0.66262689      2.85911880    F     -0.42584007     -1.32572286     -1.45426422      0.00000000      0.00000000      0.00000000     -0.01602544     -1.21217414     -1.38164528     -0.01602544     -1.21217414     -1.38164528     -0.02235600     -1.21339592     -1.33812851
Si            115.42195774     73.02173868      9.08190108      14      1.52696020     -0.17414750      1.11638934       0      -1       0     113      1.77956287     -1.94128510     -0.66178612      2.85911880    F      0.27424313     -1.35333323     -1.44090606      0.00000000      0.00000000      0.00000000      0.56732525     -1.52907731     -1.34673768      0.56732525     -1.52907731     -1.34673768      0.55329125     -1.52424515     -1.38589897
Si            120.25577313     70.45757711      9.14819422      14     -0.59359533      0.23901065     -0.39415476       0      -1       0     140     -1.80786185     -1.39190139      0.01711500      2.85911880    F      1.68086031      0.23622271     -1.71016578      0.00000000      0.00000000      0.00000000      0.96994368     -0.72342896     -0.86734424      0.96994368     -0.72342895     -0.86734424      0.96098927     -0.75306031     -0.87985291
Si             92.40152926     71.64249719      9.11706650      14      0.38832863     -0.09147687      0.93571953       0      -1       0     136     -0.03067175      0.17162360      0.14503378      2.85911880    F      0.01022523     -0.85392641     -1.31392232      0.00000000      0.00000000      0.00000000      0.74535308     -1.29361115     -0.99110232      0.74535308     -1.29361115     -0.99110232      0.71011377     -1.32242899     -1.00512533
Si             11.74350320     74.64939471      9.18114420      14     -0.37989516     -1.04098095     -1.21040959       0      -1       0      92      0.94855065     -2.20820739      1.99334158      2.85911880    F     -0.13619708      0.20343657     -1.85039148      0.00000000      0.00000000      0.00000000     -0.43118382     -0.47876933     -1.63865882     -0.43118382     -0.47876933     -1.63865882     -0.41060338     -0.44403135     -1.59508710
Si             45.07427805     70.91909184      9.16923807      14     -0.89439513     -0.40312170     -0.13476351       0      -1       0     144     -0.19721256     -0.92143157      1.34052079      2.85911880    F      0.45572339     -0.16104824     -1.00452936      0.00000000      0.00000000      0.00000000      0.61976303     -0.97780879     -0.97731818      0.61976303     -0.97780879     -0.97731818      0.61163001     -0.93018203     -0.95575074
Si             86.16321498     72.84518843      9.05442897      14     -1.53688069      0.70019639     -1.18403385       0      -1       0     126      0.36763093     -0.60353936      2.92503337      2.85911880    F      0.20115118     -1.13611588     -1.60129260      0.00000000      0.00000000      0.00000000      0.55796283     -1.36055958     -1.07284366      0.55796283     -1.36055958     -1.07284366      0.60137721     -1.35124367     -1.06545544
Si             27.92249310     73.46172808      9.36524857      14      0.48368817      0.11620709     -0.10554984       0      -1       0     127     -0.89914842     -0.76743373     -0.13651444      2.85911880    F      0.45676756     -0.04536776     -1.28780372      0.00000000      0.00000000      0.00000000      0.54554903     -1.12322615     -0.84633238      0.54554903     -1.12322615     -0.84633237      0.51949098     -1.11953092     -0.83799773
Si             39.54921822     71.60759442      9.26530372      14      0.67867538     -0.45331617      1.11832660       0      -1       0     130     -0.53361500      0.01237975      0.11907598      2.85911880    F     -0.06663023     -0.99458281     -1.05682564      0.00000000      0.00000000      0.00000000     -0.42720354     -1.02633763     -0.87973205     -0.42720354     -1.02633763     -0.87973205     -0.40693339     -1.02445119     -0.92440638
Si            123.32850667     70.68066859      9.04826716      14      0.21141605      0.17179628     -0.21800026       0      -1       0     141     -0.69884508      2.56620037     -0.91819887      2.85911880    F     -0.43818669     -1.11776437     -1.24254566      0.00000000      0.00000000      0.00000000      0.03383015     -1.92969369     -0.65872611      0.03383015     -1.92969369     -0.65872611      0.02624135     -1.88211547     -0.64389352
Si              6.37623565     73.00596759      9.10354784      14     -0.00000000     -1.03412059     -0.00000000       0      -1       0      71      0.02075890     -1.08820125      0.34363200      2.85911880    F      3.36522204     -0.24707451     -1.52297284      0.00000000      0.00000000      0.00000000      1.41043116      0.43465255     -0.57376437      1.41043116      0.43465255     -0.57376437      1.40601251      0.46633764     -0.56960453
Si             31.01849363     73.20712728      9.38743191      14      0.69151473      0.40148747     -0.37423752       0      -1       0     136     -1.56672257     -0.76712836     -0.07323856      2.85911880    F      0.15503743     -0.79346689     -1.49753468      0.00000000      0.00000000      0.00000000     -0.42442446     -1.35289915     -1.01475997     -0.42442446     -1.35289915     -1.01475997     -0.43317011     -1.37761156     -0.98861175
Si             36.77359443     72.63479638      9.33221840      14     -1.11072137     -0.09255275     -2.31935033       0      -1       0     131      0.22399835      0.31925899      0.03411347      2.85911880    F      0.07258847     -1.39814093     -1.01856404      0.00000000      0.00000000      0.00000000      0.24573608     -1.69842364     -1.36948805      0.24573608     -1.69842364     -1.36948805      0.26454418     -1.70838356     -1.33290385
Si             42.49123475     72.59352085      9.33210883      14      0.14830544     -1.21688575      0.58226006       0      -1       0     131      0.16010123     -1.25699956     -0.94224075      2.85911880    F      0.20828196     -0.83264480     -1.57876152      0.00000000      0.00000000      0.00000000      0.69515810     -0.84977252     -0.42018723      0.69515810     -0.84977252     -0.42018723      0.65013083     -0.78391659     -0.48285723
Si             23.07522214     70.52908931      9.26020984      14      0.21133413     -0.49447508     -0.29451999       0      -1       0     153     -0.47900509     -0.05162518     -1.43319791      2.85911880    F      1.06315360     -1.55271370     -0.68815959      0.00000000      0.00000000      0.00000000      0.84562444     -0.65397053      0.30645723      0.84562444     -0.65397053      0.30645723      0.85074742     -0.63549808      0.30544633
Si             52.32884090     72.86832292      9.13189702      14     -0.14509137     -0.67602320      0.03942689       0      -1       0     133      1.20707692      1.05784633     -0.36833449      2.85911880    F      0.22828530     -0.74772108     -0.69342009      0.00000000      0.00000000      0.00000000      0.08422460     -0.71135803     -0.76958291      0.08422460     -0.71135803     -0.76958291      0.13115820     -0.69538916     -0.76113683
Si             55.17818323     72.02966932      9.18758212      14     -0.47099239     -0.52900984     -0.15071738       0      -1       0     137     -0.91987229     -0.01753685      0.94987698      2.85911880    F     -0.60582004     -0.62614007     -1.03138436      0.00000000      0.00000000      0.00000000     -0.53053545     -1.70438780     -0.63932467     -0.53053545     -1.70438780     -0.63932467     -0.49691847     -1.67321272     -0.67293413