7631
energy=-145784.67348818 n_efield_old=3 cutoff=10.58354498 nneightol=1.20000000 pbc="T T T" Lattice="255.37853149       0.00000000       0.00000000       0.00000000      82.43324632       0.00000000       0.00000000       0.00000000      19.87617225" Properties=species:S:1:pos:R:3:Z:I:1:momenta:R:3:map_shift:I:3:n_neighb:I:1:force:R:3:charge:R:1:fixdip:L:1:efield:R:3:dipoles:R:3:efield_old1:R:3:efield_old2:R:3:efield_old3:R:3
Si            103.52913255     77.16624914      8.91299400      14      0.60321970     -0.27097797      0.20299089       0      -1       0      81     -1.42043064      0.99822652     -0.13183975      2.85911880    F     -0.45682809     -4.29432364     -1.01616923      0.00000000      0.00000000      0.00000000      0.28079238     -2.11712509     -0.32212368      0.28079238     -2.11712509     -0.32212368      0.26877824     -2.08923881     -0.29529295
Si              8.79521582     77.57807420      9.08693597      14      0.00000000      0.56587737      0.00000000       0      -1       0      51      0.42611920     -0.28007862      0.50727410      2.85911880    F      2.08522737     -3.72456136     -2.26210831      0.00000000      0.00000000      0.00000000      0.93262930     -1.81161085     -0.19885624      0.93262930     -1.81161085     -0.19885624      0.93314548     -1.77969114     -0.19175503
Si             11.81070012     77.49427767      9.08889247      14      0.15789097     -0.07764972     -0.00736643       0      -1       0      63      0.62684715     -1.60127221      0.46060057      2.85911880    F     -2.02124851     -4.01315737     -2.03948205      0.00000000      0.00000000      0.00000000     -0.71489434     -2.32915038     -0.28681172     -0.71489434     -2.32915038     -0.28681172     -0.70760641     -2.30654049     -0.27954258
Si             31.37750934     78.39019771      9.27379646      14      0.54888709     -0.11397890      0.68860762       0      -1       0      70      1.24178524     -2.14492126     -0.59816689      2.85911880    F     -1.76434455     -3.74441461     -1.83326700      0.00000000      0.00000000      0.00000000      0.00750722     -1.43101849     -0.23178553      0.00750722     -1.43101849     -0.23178553      0.00569731     -1.42901048     -0.23062685
Si             28.37135059     78.76177437      9.27285837      14      1.61180968      0.82895725      0.18656748       0      -1       0      73     -0.84405721     -1.03321470     -1.35004243      2.85911880    F      0.62054441     -3.85780248     -1.30646963      0.00000000      0.00000000      0.00000000     -0.39651035     -1.87612030     -0.17593289     -0.39651035     -1.87612030     -0.17593289     -0.43552928     -1.90836207     -0.15291358
Si            100.47521369     77.66577465      8.88332630      14      0.48201314      0.13119077      0.92474418       0      -1       0      89      1.28483749      0.39755578     -0.60246520      2.85911880    F     -0.13341258     -4.72099474     -1.59522344      0.00000000      0.00000000      0.00000000     -0.11195515     -1.81858094     -0.32736495     -0.11195515     -1.81858094     -0.32736495     -0.06705682     -1.76789427     -0.30545154
Si             96.10517824     74.39222074      8.99430311      14      1.11390000     -1.45655899     -0.80786363       0      -1       0     117      0.15235050     -1.87287426     -1.67475489      2.85911880    F      1.01233069     -0.86975919     -1.63137848      0.00000000      0.00000000      0.00000000      0.97825749     -1.31647352     -0.81872449      0.97825749     -1.31647352     -0.81872449      0.97305542     -1.31468642     -0.84061049
Si             49.05194600     77.21033866      9.19737427      14     -0.25885983      0.24564900      1.32232287       0      -1       0      86      0.90481533      0.58489166      0.80103271      2.85911880    F     -0.41671768     -3.26704106     -0.35406299      0.00000000      0.00000000      0.00000000      0.47281136     -2.16605954      0.17744548      0.47281136     -2.16605954      0.17744548      0.48830835     -2.15728599      0.18128692
Si             93.67161307     76.11812789      8.91508120      14     -0.70289319      1.13145360     -0.72817872       0      -1       0      96     -1.32759941     -1.70305237      1.44885592      2.85911880    F     -0.04409318     -3.62425418     -1.14278250      0.00000000      0.00000000      0.00000000     -0.57361688     -1.12972005     -0.44903737     -0.57361688     -1.12972005     -0.44903737     -0.56603266     -1.15015327     -0.44329344
Si             99.10952282     74.94003710      8.83698977      14      0.77417003     -0.70188835     -0.22575387       0      -1       0     101     -0.40429912      0.35547841     -0.87551702      2.85911880    F     -0.00085367     -1.04186382     -1.35589818      0.00000000      0.00000000      0.00000000     -0.23375242     -2.31179517     -0.61289399     -0.23375242     -2.31179517     -0.61289399     -0.25157023     -2.31740197     -0.59023030
Si            110.52538992     75.28496786      9.03194630      14     -0.01721572      0.24382964      0.43957671       0      -1       0     100      1.46165284     -1.29967679      1.57848830      2.85911880    F      0.13215608     -3.77305130     -2.11444171      0.00000000      0.00000000      0.00000000     -0.68925192     -2.10179265     -0.58120080     -0.68925192     -2.10179265     -0.58120080     -0.67602887     -2.11677174     -0.57924273
Si            113.63431818     75.43143154      9.11501307      14      0.57597797     -0.72638144     -1.98379927       0      -1       0      92     -0.07140652      0.10610202     -0.54397093      2.85911880    F     -0.10710017     -3.90254528     -1.51829244      0.00000000      0.00000000      0.00000000      0.40530724     -1.93046253     -0.40491119      0.40530724     -1.93046253     -0.40491118      0.40523870     -1.92545705     -0.38281800
Si            123.12974107     75.90270878      9.01746863      14      0.39823907      0.03278572      0.74876854       0      -1       0      88     -0.42927100     -0.26017231      0.23840538      2.85911880    F      0.10382962     -3.71112652     -0.77176044      0.00000000      0.00000000      0.00000000      1.26247664     -2.41645301     -0.31003355      1.26247664     -2.41645301     -0.31003355      1.27264020     -2.42089132     -0.34242796
Si             22.14157246     73.17078858      9.16191038      14      0.45798257      0.38092552     -0.56571147       0      -1       0     131     -1.51756172      1.02553895      1.03971706      2.85911880    F     -0.68518442      1.60412288     -2.27723130      0.00000000      0.00000000      0.00000000     -1.01670149      0.34959397     -0.72005509     -1.01670149      0.34959397     -0.72005509     -1.02821286      0.33351347     -0.66588717
Si             23.93810173     75.44832884      9.18747297      14      1.12191757     -0.81196032     -0.08921682       0      -1       0     117      0.79724611     -1.14272762      0.64850943      2.85911880    F      1.80260604     -2.01134495     -1.21000759      0.00000000      0.00000000      0.00000000      0.61769213     -0.81438195     -0.39223373      0.61769213     -0.81438195     -0.39223373      0.58089052     -0.82631252     -0.36506280
Si             57.25730840     76.39008938      9.27113120      14     -0.52966921      0.29809188     -0.45867586       0      -1       0     100      0.50988550      0.02755358     -1.66852371      2.85911880    F     -0.42451193     -4.82291638     -1.24387753      0.00000000      0.00000000      0.00000000      0.42240275     -2.11361158     -0.36032043      0.42240275     -2.11361158     -0.36032043      0.42498939     -2.11335528     -0.34038248
Si             64.27142069     76.14739342      9.13942913      14     -0.15342710      0.29799498      0.91210983       0      -1       0     103     -0.43230780     -0.46224387      0.12362345      2.85911880    F      0.97461459     -3.44960825     -0.40545840      0.00000000      0.00000000      0.00000000     -0.20811021     -2.08866656     -0.16827439     -0.20811021     -2.08866656     -0.16827439     -0.17955053     -2.06442959     -0.15620413
Si             67.29509780     76.29259462      9.19053171      14      0.51826328     -1.26125711      1.87086496       0      -1       0      99      0.95872094      0.28927463     -0.40059067      2.85911880    F      0.30479727     -2.10041603     -1.91777955      0.00000000      0.00000000      0.00000000      0.49159480     -1.38929749     -0.71297362      0.49159480     -1.38929749     -0.71297363      0.57411796     -1.32107681     -0.75209406
Si             69.66728511     78.09601105      9.02315383      14      0.38326885      0.69624919      0.46999039       0      -1       0      73      1.24358222     -0.15390932     -1.03484418      2.85911880    F     -1.47358000     -3.61812329     -0.84156331      0.00000000      0.00000000      0.00000000     -1.09612593     -1.19998015     -0.43798547     -1.09612593     -1.19998015     -0.43798547     -1.12418475     -1.23957999     -0.46891561
Si             72.36082286     76.78107813      8.88269105      14      0.96853823     -0.59388093      1.37404937       0      -1       0      97     -1.06016933      0.96554951     -0.87791888      2.85911880    F     -1.07383652     -3.58932883     -0.53581022      0.00000000      0.00000000      0.00000000      0.52636023     -2.00098535     -0.81862773      0.52636023     -2.00098535     -0.81862773      0.48553620     -2.00145821     -0.82275396
Si             26.82792490     76.15288037      9.28944884      14      0.10652427     -1.07926108     -0.40775553       0      -1       0     109      1.92941385      0.40399437     -0.55665214      2.85911880    F      0.38476032     -1.89692172     -1.50141139      0.00000000      0.00000000      0.00000000      0.13961311     -2.29058645     -1.76137608      0.13961311     -2.29058645     -1.76137608      0.18034135     -2.27197986     -1.79449839
Si             54.33136737     77.07021214      9.30209635      14      0.39774668      0.08248236      0.75674080       0      -1       0      93      0.59363044      0.22557196      0.09090708      2.85911880    F     -1.89378352     -2.24432799     -0.64765455      0.00000000      0.00000000      0.00000000     -1.41128134     -0.60891423      0.04002912     -1.41128134     -0.60891423      0.04002912     -1.42714105     -0.61227263      0.05167620
Si            127.67705038     72.60611304      9.23719013      14     -0.42082600     -0.41692020      0.37232932       0      -1       0     115     -0.09363934     -0.10154863     -0.33135372      2.85911880    F      0.07256972     -0.76939135     -1.52222349      0.00000000      0.00000000      0.00000000     -0.43754126     -0.55912868     -0.93323576     -0.43754126     -0.55912868     -0.93323576     -0.41137793     -0.53465360     -0.94699250
Si             51.65085588     75.89092737      9.31060916      14     -1.09213464     -0.22641860     -0.50426575       0      -1       0     104      0.62961051      1.06246565     -0.21703877      2.85911880    F     -0.31361188     -1.94085412     -1.43957391      0.00000000      0.00000000      0.00000000      0.13096772     -1.70712655     -1.79814460      0.13096772     -1.70712655     -1.79814460      0.12678520     -1.73761347     -1.79268496
Si             76.34145768     73.77943722      9.04150153      14     -1.27000166     -0.82294697     -0.92138596       0      -1       0     117      0.24817204      0.52144025      0.56904413      2.85911880    F      0.10204666     -1.60217261     -1.51226326      0.00000000      0.00000000      0.00000000      0.08453490     -1.73359481     -0.63714602      0.08453490     -1.73359481     -0.63714602      0.07397309     -1.68071149     -0.65566933
Si             78.32165615     76.14904541      8.89486000      14      0.50513667     -0.01326391     -1.22191581       0      -1       0      95      0.54831171     -0.09100781     -0.06454293      2.85911880    F     -1.16730770     -3.92666088     -1.21840995      0.00000000      0.00000000      0.00000000     -1.20528962     -1.76040283     -0.53166807     -1.20528962     -1.76040283     -0.53166807     -1.18540009     -1.75242081     -0.53697389
Si             81.22534241     75.54189914      8.98822890      14      0.58443871      0.15845495      1.18956657       0      -1       0      93      1.55694703     -1.25126878      0.62297664      2.85911880    F     -0.02481086     -2.55922374     -0.75044845      0.00000000      0.00000000      0.00000000      0.45277585     -1.24413138     -0.26756087      0.45277585     -1.24413138     -0.26756087      0.43408055     -1.21929192     -0.27521750
Si            118.51990491     72.86844659      9.01676436      14     -0.12001033      0.69384283     -0.36838023       0      -1       0     117     -0.01857440     -0.47495229      1.05643604      2.85911880    F     -0.32610613     -1.07407839     -1.62777500      0.00000000      0.00000000      0.00000000     -0.85903163     -1.30987865     -0.80491079     -0.85903163     -1.30987865     -0.80491079     -0.88147284     -1.28172456     -0.84844553
Si            120.13667549     75.44535632      9.13287876      14      1.59591917     -1.60036496      1.19185957       0      -1       0      93      0.66339423      0.32152532     -0.85706396      2.85911880    F      0.73991318     -3.86391115     -1.32785571      0.00000000      0.00000000      0.00000000     -0.20053681     -1.84403899      0.03383868     -0.20053681     -1.84403899      0.03383868     -0.18359439     -1.84406104      0.01231315
Si             32.35850468     75.53843786      9.30560483      14     -0.35719320      1.03971851      1.78184951       0      -1       0     101     -0.43639400     -0.44418513     -0.12998637      2.85911880    F     -0.42749985     -1.53769864     -1.22952680      0.00000000      0.00000000      0.00000000     -0.83879230     -1.74836190     -0.86579524     -0.83879230     -1.74836190     -0.86579524     -0.80212174     -1.74730596     -0.88777499
Si             35.47053873     75.22849618      9.23335777      14      0.04502383      1.52399541      1.30946241       0      -1       0      98     -1.50228336     -1.04362422      1.49322763      2.85911880    F     -1.05328298     -3.16166430     -1.48820955      0.00000000      0.00000000      0.00000000      0.16978126     -1.91640187     -0.08953765      0.16978126     -1.91640187     -0.08953765      0.15872717     -1.94068048     -0.09641040
Si             60.50394607     71.97917463      9.14328806      14      0.18271120      1.35886698      0.83116206       0      -1       0     142     -0.11743577      1.12588285     -0.49825849      2.85911880    F     -0.17898579     -1.10306674     -1.42239281      0.00000000      0.00000000      0.00000000      0.65362982     -1.36313637     -1.11810043      0.65362982     -1.36313637     -1.11810043      0.63258419     -1.41742569     -1.12835815
Si             88.17499493     75.00141113      8.93092722      14     -0.59413390      0.23360205     -1.03639178       0      -1       0      98     -0.56130564      0.46607566     -0.64025174      2.85911880    F      0.06340634     -2.99431366     -0.14682671      0.00000000      0.00000000      0.00000000      0.11702524     -1.90081482     -0.32526942      0.11702524     -1.90081482     -0.32526942      0.15628566     -1.91807159     -0.31648380
Si            106.21875399     71.94799751      8.87277036      14      2.40227778     -0.44458110      0.86062928       0      -1       0     131     -0.68908225     -0.32420511      1.18292731      2.85911880    F      0.38214461     -0.70990033     -1.18522894      0.00000000      0.00000000      0.00000000      0.43038290     -1.09708984     -0.84750348      0.43038290     -1.09708984     -0.84750348      0.40712352     -1.04451476     -0.81974624
Si             16.74696418     75.07170403      9.18316533      14     -0.25493872      0.80638758     -0.66381856       0      -1       0     103     -0.98461320     -0.53300030     -0.02038273      2.85911880    F      0.31549188     -3.44490278     -0.41679894      0.00000000      0.00000000      0.00000000      0.58833082     -2.01317256      0.19754414      0.58833082     -2.01317256      0.19754414      0.57611766     -2.05478095      0.21968760
Si             43.84427318     75.08032132      9.37147702      14     -0.80913593     -0.65064888      0.07809295       0      -1       0     106      0.11419275      0.12578432     -1.07946377      2.85911880    F      0.89612585     -3.45634671     -0.72867293      0.00000000      0.00000000      0.00000000     -0.24737945     -1.91067752     -0.03243865     -0.24737945     -1.91067752     -0.03243865     -0.26640034     -1.88422689     -0.01646435
Si             46.84779933     75.29411771      9.40104822      14      0.21022124     -1.16178805     -1.51031214       0      -1       0     107      1.17618655      0.65666824     -1.03176060      2.85911880    F      1.11232761     -1.68927653     -1.12972707      0.00000000      0.00000000      0.00000000      0.77162388     -2.00066436     -0.40759907      0.77162388     -2.00066436     -0.40759907      0.78154330     -1.95488397     -0.37180428
Si             83.08180213     73.11077467      9.20436445      14     -0.34159853     -0.83401588      0.09046658       0      -1       0     115      1.12868820      1.11948733     -1.24854598      2.85911880    F     -0.58604045     -2.21176537     -1.39016295      0.00000000      0.00000000      0.00000000     -0.10589274     -1.37087263     -1.15629758     -0.10589274     -1.37087263     -1.15629758     -0.05619056     -1.37371444     -1.15967671
Si             91.09959791     74.54416451      9.06734469      14      0.84750051     -0.40800270     -0.23027496       0      -1       0     106      0.73019620      0.05885701     -0.66561264      2.85911880    F      0.90801174     -1.35591328     -1.65281908      0.00000000      0.00000000      0.00000000      0.02061380     -1.19872490     -1.51625861      0.02061380     -1.19872490     -1.51625861     -0.00496993     -1.17758478     -1.51112586
Si            101.42131132     72.90736157      8.90663434      14      0.65908722     -0.77987936     -1.14254070       0      -1       0     126     -0.92816042     -0.12763188     -0.47861351      2.85911880    F      0.86476016     -0.16366639     -1.82427131      0.00000000      0.00000000      0.00000000      1.20748134     -1.07135111     -0.75658654      1.20748134     -1.07135111     -0.75658654      1.22205135     -1.03681666     -0.75063680
Si            104.12066719     74.33681323      8.84969703      14     -0.56979028      1.28438802      0.87912921       0      -1       0     106      0.46115021     -1.38241098      1.75413352      2.85911880    F     -1.05751913     -1.62920136     -1.70541128      0.00000000      0.00000000      0.00000000     -0.98721565     -1.58124436     -0.93250222     -0.98721565     -1.58124436     -0.93250222     -0.99651310     -1.61489530     -0.95201917
Si            109.14251014     72.54330220      9.08054530      14     -1.81248805      1.08257540      1.29547028       0      -1       0     113     -0.30147854     -0.95736473      1.04456545      2.85911880    F     -0.72095271     -1.55281701     -1.75561083      0.00000000      0.00000000      0.00000000     -1.39868665     -1.29581714     -1.14357627     -1.39868665     -1.29581714     -1.14357627     -1.37278475     -1.32326160     -1.19602085
Si             14.50553494     72.99054304      9.12301158      14      0.35209442      1.04811467     -0.09634961       0      -1       0     126      0.26630144     -0.52539069      1.58096369      2.85911880    F      0.00932677     -0.86052427     -1.54882266      0.00000000      0.00000000      0.00000000     -0.10062639     -1.88591300     -0.85124753     -0.10062639     -1.88591300     -0.85124753     -0.08821662     -1.91280810     -0.85479946
Si             19.25629577     73.90500337      9.20554125      14      1.39450283      0.03868619      0.08392486       0      -1       0     123     -0.60943618     -1.78390938      1.30440990      2.85911880    F      1.05191985     -1.38469137     -1.39169639      0.00000000      0.00000000      0.00000000      0.76470427     -0.96016898     -1.22704964      0.76470427     -0.96016898     -1.22704964      0.75933241     -0.98452740     -1.18593663
Si             63.19819178     73.44046156      9.13516742      14      0.24999826      0.12957777     -1.69034321       0      -1       0     130      1.28299852      1.64578687      0.22495125      2.85911880    F     -0.04962397     -1.31047181     -0.98709882      0.00000000      0.00000000      0.00000000      0.22205277     -1.15745292     -1.28515858      0.22205277     -1.15745293     -1.28515858      0.23925386     -1.19773179     -1.26434901
Si              8.73781169     74.55975671      9.18952026      14     -0.00000000     -0.87980940     -0.00000000       0      -1       0      73     -1.02822195     -0.73999824      0.10668365      2.85911880    F      1.45823683      0.17016406     -1.89125963      0.00000000      0.00000000      0.00000000      1.43360610      0.03437054     -1.28212094      1.43360610      0.03437054     -1.28212094      1.46306676      0.02747876     -1.29355720
Si             68.23034429     73.31714580      9.17237879      14      0.49462003     -0.64534791     -1.24373203       0      -1       0     122      1.27752300     -0.01918701     -0.29614525      2.85911880    F     -0.36517601     -0.91477189     -1.39217577      0.00000000      0.00000000      0.00000000     -0.11438917     -1.56219857     -0.49885669     -0.11438917     -1.56219857     -0.49885669     -0.06939014     -1.54111283     -0.46864797
Si             73.31713970     73.92734335      9.07124863      14      2.15938717     -1.19558275     -0.64069847       0      -1       0     123      0.14774743      1.31919252     -2.17982770      2.85911880    F     -0.38935942     -1.39237986     -0.89007406      0.00000000      0.00000000      0.00000000     -0.54953773     -1.73270880     -1.30485697     -0.54953773     -1.73270880     -1.30485697     -0.57653549     -1.78110261     -1.31336888
Si            115.43105815     72.96459957      9.07252750      14     -0.12352913     -0.02687123      0.55678118       0      -1       0     112     -0.43774035     -0.87456663     -0.04440943      2.85911880    F      0.98548724     -1.85122596     -1.61596567      0.00000000      0.00000000      0.00000000      0.53412540     -1.62056567     -0.65650317      0.53412540     -1.62056567     -0.65650317      0.59198131     -1.65792760     -0.65219404
Si            120.14707800     70.21574640      9.03331520      14     -0.49671114     -1.62457576      0.41510630       0      -1       0     144      1.75589896      0.07219270      2.52329233      2.85911880    F      1.02093376     -0.55476535     -2.61146843      0.00000000      0.00000000      0.00000000      0.54903500     -0.97423907     -0.78855628      0.54903500     -0.97423907     -0.78855628      0.54101623     -0.95259195     -0.80401770
Si             92.46090567     71.73549222      8.98524616      14     -1.20587471     -0.82745502      0.61426326       0      -1       0     131      2.41511491      0.28141727     -0.13432352      2.85911880    F     -0.01687526     -1.25481080     -1.47526024      0.00000000      0.00000000      0.00000000      0.24200828     -1.17892515     -1.13307198      0.24200828     -1.17892515     -1.13307198      0.27802020     -1.23202478     -1.09216513
Si             11.74406814     74.44816138      9.13805781      14      0.01923874     -0.59850823     -0.07212798       0      -1       0      92      2.14912371     -0.27084877      0.07695623      2.85911880    F      0.04741446      0.10469023     -1.86790931      0.00000000      0.00000000      0.00000000     -0.74339062     -1.01852735     -1.49289116     -0.74339062     -1.01852735     -1.49289116     -0.77585259     -1.05614817     -1.47427673
Si             45.10088041     70.73706314      9.32608405      14      0.61752342      1.93277853     -2.04915070       0      -1       0     144     -0.97095965      0.85406413     -0.35301083      2.85911880    F      0.44061455     -0.45331592     -1.56032243      0.00000000      0.00000000      0.00000000      0.47584700     -1.13128901     -0.65229519      0.47584700     -1.13128901     -0.65229519      0.45510677     -1.18692398     -0.61437573
Si             86.20299596     72.71497546      9.13852628      14     -1.02400037      0.20518670      0.38110535       0      -1       0     126     -1.02162450      0.75636332     -0.20000209      2.85911880    F      0.47051066     -1.19408382     -1.34987697      0.00000000      0.00000000      0.00000000      0.60613635     -1.75643900     -0.61863557      0.60613635     -1.75643900     -0.61863557      0.62507970     -1.76100877     -0.61314393
Si             27.84764205     73.27638518      9.29948199      14     -0.10170069      0.58010196     -0.92088874       0      -1       0     127     -0.52398406     -1.02481606      0.63671249      2.85911880    F     -0.04250428     -0.39538235     -1.58950014      0.00000000      0.00000000      0.00000000      0.18496342     -0.80484615     -0.69151022      0.18496342     -0.80484615     -0.69151022      0.19950177     -0.79132010     -0.71215955
Si             39.57286949     71.55396690      9.30130486      14     -1.85676092     -0.50735246      0.38259817       0      -1       0     130      2.22079798     -1.03685806     -0.47708385      2.85911880    F     -0.24719902     -0.96873954     -1.58197964      0.00000000      0.00000000      0.00000000     -0.00662263     -0.93942276     -0.39437596     -0.00662263     -0.93942276     -0.39437596      0.07924482     -0.93509003     -0.39113663
Si            123.29196087     70.52761113      8.98853343      14      0.91722323     -0.84687461      1.53029033       0      -1       0     144     -0.71621857      1.79935779      2.34110585      2.85911880    F     -0.81926908     -0.96833477     -1.98685745      0.00000000      0.00000000      0.00000000     -0.53860806     -1.30937435     -0.83419131     -0.53860806     -1.30937435     -0.83419131     -0.55234937     -1.33540589     -0.83971753
Si              6.37623565     72.68520534      9.10354784      14     -0.00000000     -0.25322530     -0.00000000       0      -1       0      71      0.01555986      0.52367702     -0.38425958      2.85911880    F      3.33573715     -0.68983855     -1.29504957      0.00000000      0.00000000      0.00000000      1.25149292      0.26452202     -0.66627133      1.25149292      0.26452202     -0.66627133      1.25411465      0.23748980     -0.66596790
Si             30.90216894     72.83300198      9.31734633      14      0.40262807     -1.07958685     -0.93429013       0      -1       0     138      0.44858455      0.79581767     -0.29171279      2.85911880    F     -0.10764145     -0.85304944     -1.18451890      0.00000000      0.00000000      0.00000000      0.05428972     -1.32096798     -0.99946737      0.05428972     -1.32096798     -0.99946737      0.06516085     -1.26651668     -0.99463132
Si             36.75778957     72.52987353      9.39833314      14      0.77763994      0.29818301     -0.15888485       0      -1       0     133     -1.71326620      0.19154143     -0.80605551      2.85911880    F      0.41166883     -1.37160233     -0.70082421      0.00000000      0.00000000      0.00000000     -0.07941942     -1.85246969     -1.09383682     -0.07941942     -1.85246969     -1.09383682     -0.11672003     -1.80646101     -1.06214895
Si             42.50306749     72.44184545      9.32838641      14      0.83559410      0.24297569      1.16667153       0      -1       0     130      0.64470056     -0.40704544     -0.19153250      2.85911880    F     -0.07554253     -1.23339446     -1.16779368      0.00000000      0.00000000      0.00000000      0.05758542     -0.83548401     -1.37646939      0.05758542     -0.83548401     -1.37646939     -0.01054607     -0.87054990     -1.39774613
Si             22.84148212     70.32219136      9.33954171      14     -1.55050889     -0.67440095      0.53877808       0      -1       0     152      1.44582947      0.17821843     -1.17097811      2.85911880    F      1.03714205     -1.62095733     -0.91799453      0.00000000      0.00000000      0.00000000      1.12202917     -1.48359460      0.29057499      1.12202917     -1.48359460      0.29057499      1.15767995     -1.44862633      0.30526757
Si             52.31600508     72.92593515      9.24959663      14     -0.63365239      0.33208888     -1.35758240       0      -1       0     132      0.78124484     -0.12326003      1.82905238      2.85911880    F      0.39455184     -0.75407381     -1.15326168      0.00000000      0.00000000      0.00000000      0.53130098     -1.48197811     -0.98461769      0.53130098     -1.48197811     -0.98461769      0.55222501     -1.43786865     -0.97015759
Si             55.14267047     72.09937145      9.21039018      14     -1.49497834      0.35770167     -0.71342230       0      -1       0     134     -0.04038704     -0.42586025      0.93852657      2.85911880    F     -0.66668787     -0.57568950     -0.49698536      0.00000000      0.00000000      0.00000000      0.11883797     -1.59764739     -1.15368373      0.11883797     -1.59764738     -1.15368373      0.18495383     -1.59211807     -1.12668702