7631
energy=-145914.60100051 time=16000.00000000 temperature=295.49253610 cutoff=10.58354498 nneightol=1.20000000 pbc="T T T" Lattice="255.37853149       0.00000000       0.00000000       0.00000000      82.43324632       0.00000000       0.00000000       0.00000000      19.87617225" Properties=species:S:1:pos:R:3:Z:I:1:momenta:R:3:force:R:3
Si            103.67213877     76.97446310      8.91285269      14     -0.92628603      0.31694226     -0.39361343     -0.37731985     -0.42107845      0.16310531
Si              8.79521582     77.70958979      9.08693597      14      0.00000000      0.38748586      0.00000000      0.09041478     -0.57435670      0.09170866
Si             11.82643929     77.51669278      9.14318721      14     -0.47006012     -0.83584400     -0.74503826     -0.52172544      0.19813377     -0.10812773
Si             31.27086396     78.33958873      9.25288924      14      1.00657532     -0.30649569     -0.77353672     -2.51433982      2.85850341     -1.97236410
Si             28.34639804     78.79217128      9.07815866      14      0.44888294      0.85255562      0.33145242     -1.51649917      0.24900831      1.45904994
Si            100.55343556     77.40007129      8.86519854      14     -0.09425572      0.58233809      0.90792101      1.32364466      0.65374802     -0.43501629
Si             96.06372578     74.09944099      9.02251364      14     -0.13204281     -0.06837915      0.98187943     -0.07526318     -0.07482245     -0.23545971
Si             48.94186900     77.29581649      9.26969466      14     -0.69688200     -0.62885622      0.01624820     -0.44110721     -0.83430152      2.52328712
Si             93.74644309     76.07516387      8.94609661      14     -0.45478713      1.00990893     -0.89964359      0.76597670     -2.09563385     -0.15626363
Si             99.01468658     74.83981272      9.02590724      14      1.19149955      0.46691326     -0.30473865     -0.20876602      0.34760821     -0.74429123
Si            110.55777799     75.21776249      9.11026955      14     -0.36302855      1.65701114      0.80579629      1.63357939     -0.56858115     -0.03810987
Si            113.64742356     75.22837811      9.10055676      14     -0.64839903     -0.66895743     -0.18428677      0.91694883     -1.00016172     -0.03627714
Si            123.10258518     75.73366526      9.14680127      14      1.12661189     -2.38020074      0.11793321      1.29012501     -1.54697374      0.52859693
Si             22.13523493     73.26772530      9.41942569      14      1.33736618     -0.67225989     -0.69258616     -1.04986343     -0.31209783      1.16224351
Si             24.04485794     75.31294645      9.26596609      14     -1.21330762     -0.65765044     -0.89395476      0.40880686     -0.08247823      1.58610877
Si             57.13471460     76.29317830      9.29182136      14     -0.64800860      0.69137536     -1.84900289      0.53071240     -1.30825865     -0.43060657
Si             64.34732765     76.20666378      9.01727845      14     -0.39830650      1.46655479      0.09727226     -4.14985662     -2.05901631     -1.05263960
Si             67.27445219     76.16579300      9.13592685      14     -0.02866649     -0.66543673     -0.16522390      1.42518296      0.07171657     -0.82953063
Si             69.54659047     78.07545101      9.10350362      14     -0.38261181      0.58851737      0.55360864     -0.68301802     -0.74222656     -0.28250155
Si             72.11140492     76.59379947      9.08380505      14      0.09493003     -0.35345731      0.36769013      1.33121328     -0.36771597     -0.48010214
Si             26.85013891     76.33122439      9.28473308      14      0.55579466     -1.58906064      0.63010423     -1.36433295     -1.42739379      0.03663375
Si             54.33047767     77.33549206      9.26472641      14      0.41779780     -0.84554045     -0.43177148      0.00571294     -0.59552916     -0.49941757
Si            127.71658756     72.55776439      9.18853814      14      1.44258919     -0.07249004     -0.67661151      1.46711282     -0.57865304     -0.52366473
Si             51.61579657     75.94592133      9.37087368      14      0.32187144      0.50461703      0.61696381      0.10455479     -0.96203822      0.44651299
Si             76.42856959     73.76737810      9.18197220      14     -0.39750460     -1.21214499     -0.83002805      2.58051080     -1.84912007     -1.59013490
Si             78.43571262     75.89452027      9.01772089      14     -0.34604724     -0.03682518     -0.27454975      0.80197761     -0.00241981     -0.71236115
Si             81.47089152     75.61593527      9.19054261      14     -0.52733659     -0.30601199      0.20536137      0.01373091     -1.74764626     -0.25773930
Si            118.65691933     72.87992453      9.22599139      14     -0.17501160     -0.46507000      1.44191476     -0.84602861     -1.72039644      0.32715565
Si            120.06838702     75.54806189      9.14895119      14     -0.60007419     -1.48394122      0.25998225     -0.29294403     -0.99373363     -0.40264634
Si             32.32409604     75.53078332      9.28483083      14     -0.18942110     -1.53483745      1.54735342      2.05529315      2.51371987     -1.80537171
Si             35.36524728     75.15016815      9.38416871      14     -0.10007495      0.86748211     -0.14767130     -1.11059220      0.33259851     -1.04201894
Si             60.45877461     72.09121745      9.21989500      14      0.18566902     -0.90571105     -0.73015701      0.69087312     -1.30467942      0.14366276
Si             88.30280269     74.96449351      9.04941518      14      0.44537483      0.86247012      0.00777274      0.35084791     -1.28378395      1.20418365
Si            106.15362686     71.87401724      9.00807995      14      0.56747730     -0.61266541      0.42104588      1.65079067      1.88680673     -0.72269572
Si             16.57332759     74.87908072      9.33685085      14     -1.24719965      0.80392976      0.45150936      1.30415112      0.55791978     -0.98518105
Si             43.86610565     75.35673414      9.29051718      14     -0.20727333     -0.56587406     -0.58144640     -2.46396283     -0.56166416     -0.84131299
Si             46.75597312     75.34021586      9.44183674      14     -1.65856806     -0.22487353     -0.03493695      0.41232392     -1.07706015      0.25750923
Si             83.32420921     73.22171120      9.24125448      14     -1.64673303      0.00643130      0.39267310     -0.85687452      1.77082003     -1.67293675
Si             91.20813911     74.37866411      9.03173118      14     -0.22597130      0.89016876      0.14896986      1.37164740     -0.41543718      0.26245110
Si            101.26495741     72.74500828      9.07926359      14     -2.51570797     -0.12812571      0.71776984      0.03571608      0.28232539     -1.04126988
Si            104.06200460     74.03949580      8.94435396      14     -0.32694584      0.22373452      0.48626944      1.32032641     -0.42125144      0.81336679
Si            109.23479870     72.45092084      9.08767653      14     -1.99235992      0.85284105      0.04749479      1.02212549     -0.24326236      1.41006049
Si             14.32246115     72.91857666      9.36249711      14      0.19260658      0.37556805     -0.15607601     -0.62311045      1.15695991      0.46198493
Si             19.30223014     73.96701844      9.34874425      14     -0.48424398     -1.02782336      1.14964404      0.84822304     -0.63764090      0.25139796
Si             63.13451761     73.46457725      9.19882834      14      1.30909389      0.89794750      0.54973886      1.20169219      0.48806877      0.88997697
Si              8.73781169     74.68612221      9.18952026      14     -0.00000000     -0.58069425     -0.00000000      0.38174004      1.60806098     -0.29274899
Si             68.31825449     73.33430732      9.18700828      14     -0.92856736     -1.52007625      1.02397373      0.20826496     -0.58499733      0.12698184
Si             73.43450377     73.81704443      9.08664961      14     -1.50472514      1.15105082     -1.62179826     -1.59987648      1.82735668     -0.37481040
Si            115.49987203     72.83216170      9.24002002      14      1.32268939      0.67327774     -1.45147950     -0.07698629     -1.05697768     -0.90480188
Si            120.25682399     70.18986571      9.14208713      14     -0.37856230      0.27860252      0.68892965      1.67099557      0.63434557     -1.14871786
Si             92.41044379     71.56067049      9.00415415      14     -0.44558878      1.41333792     -0.63492462     -0.80502362      0.12690546     -0.41136938
Si             11.83841177     74.66646456      9.21429631      14     -1.15358252     -0.26498647     -0.10574001     -0.10150180     -1.50447665      0.88262236
Si             44.91821107     70.83748967      9.34128161      14     -1.40078684     -0.25325720      0.83399762      0.55457281     -0.59300202     -0.30126146
Si             86.31426377     72.84879443      9.21146561      14      0.38616611      0.30642287     -0.59264342      1.85184517     -2.11747750      1.43273463
Si             27.80454278     73.46166094      9.30179761      14      0.82748748      0.53728170      0.63509393      1.22570169      0.51039883     -0.52284492
Si             39.77356168     71.70984998      9.39381273      14      1.49184153      1.31525547      0.64363436     -1.59896407      0.92797631     -1.59763118
Si            123.44966624     70.45416014      9.12542958      14      0.22229355     -0.50633767      0.17471056     -2.00942124     -1.44305292     -0.59773166
Si              6.37623565     72.92090405      9.10354784      14      0.00000000      1.08491419      0.00000000     -0.42821009     -1.50007533      0.18432843
Si             30.80383313     72.95993427      9.35975937      14     -1.11060726     -0.62246612      0.04045117      0.17772535     -0.72277008     -0.70280675
Si             36.90869011     72.60560489      9.35681098      14      0.72168456     -0.45072349     -0.30792006     -2.38075410     -2.00541475     -0.07062684
Si             42.51972897     72.68570064      9.43497028      14     -1.18710534     -0.16211448     -0.99304912      1.68092706      0.45687268     -0.78772371
Si             22.99884123     70.47767932      9.34229384      14      0.93402233     -2.12199258      1.11625637      0.15020631     -0.48159093     -0.59426527
Si             52.28014164     73.01030200      9.23948604      14      1.09097690     -0.38014669      0.34097064     -0.79719054     -2.08218286      0.86840646
Si             55.00007184     72.00840248      9.17117919      14     -0.60099648      0.46020482     -0.34490537      0.75503556      0.86101625      0.24468512
Si             65.69464834     71.70278989      9.08399897      14      0.63650357      0.77292894      2.03087366     -0.25566605      0.86478547     -0.09764305
Si             95.41845143     71.10241411      9.14530410      14      0.83017430      0.07093293     -1.48804024      0.92368197     -0.45982043     -0.58225152
Si            114.16698262     70.03809197      9.20265659      14      1.28651462     -0.01943569     -0.40902801     -1.20009586      1.61326299     -1.11942215
Si             71.08511742     71.93739064      9.16566378      14      0.70031833      0.09234317     -0.47213076      0.13486784     -0.29490485     -0.30635149
Si            111.00559888     69.95893024      9.11779880      14     -0.93515756     -0.31917752     -1.23655387      0.85703269      2.76538025      0.96223012
Si             25.88446256     71.19194479      9.32302973      14     -0.62113663     -0.74602262     -1.26375871     -0.98101568      1.21359280     -0.59045604
Si             47.60366755     72.35975060      9.38351497      14      0.78170363     -0.38212188      0.61782817     -2.63753594     -0.01091704      0.32412378
Si             50.23079495     70.81306600      9.30851169      14     -0.23374436      0.88397161      0.52671430      0.03245721     -2.89901901      0.14932779
Si             78.31954293     71.19095245      9.14939402      14      1.52277269     -0.54871194     -0.28410782      0.72103224      1.16097384     -0.03677199
Si             81.33556039     70.81148292      9.09359496      14      0.05097067      0.58050262     -0.68901385      0.45115004     -0.49221579      0.53995595
Si             20.05771896     71.15416756      9.39962061      14      0.58605764     -0.18628943      0.83178066      0.07725083     -0.83549624     -1.36570182
Si             32.11280561     70.11634569      9.30537642      14      0.43742495     -0.11436229      0.42013816     -1.31919237      1.21453891      1.21434079
Si             87.58582199     69.95418057      9.32408710      14     -0.78544995     -0.79220824      0.08008631     -0.29216135     -0.49193920     -0.63587188
Si             90.49894440     69.15733730      9.21168710      14     -0.83892940     -0.91095184      0.26117941     -0.42878300      1.41112540     -1.60286664
Si             35.14092074     69.96509338      9.37029581      14      0.13155302      0.64605122     -0.92944554      0.94331703      0.75348882      0.04736138
Si             96.93136580     68.39841541      9.12179756      14      0.43334540      0.05519715      0.00092061      0.46005042      0.31768115     -0.69241457
Si            117.37771723     65.41690781      9.03513145      14      0.85584187      1.17081198      0.05637918     -1.65473823     -1.38700357      0.52509599
Si             15.33365917     70.14844321      9.45263550      14      1.03975577     -2.21732126     -0.26446772      0.76560899      0.12537277     -2.51580211
Si             18.13061483     68.98162186      9.34908896      14      1.71255914      0.28196096      0.63074895     -0.61344276      0.20283607      0.46665855
Si             73.91074448     67.64047035      9.18559108      14      0.53920296     -1.06582537     -0.37022643     -1.54622435     -0.46283356      0.68791237
Si             99.93810740     67.53727731      9.06021369      14      0.78701702      0.24825961     -0.76548346     -1.65268228      0.90355655     -0.57780099
Si            102.09592227     69.79364125      8.97393925      14      0.20455042      1.36164276      1.10209051     -0.40320699     -0.71002922      1.36913684
Si              6.35653784     69.86566633      9.08650426      14      0.00000000      0.58184237      0.00000000     -1.07233024      1.93658364     -0.53754210
Si             30.04736986     67.86389688      9.32260091      14      0.37053816     -0.74883093      0.66263563     -0.40351831      0.09192652     -0.05306093
Si             57.75743823     67.78882484      9.31466499      14      0.19769372      0.47688222      0.01174118      0.45893523     -0.90311450     -0.41928728
Si             76.76902775     68.73079571      9.24610080      14     -1.63589446      1.49013389     -0.28115166     -0.43945737     -1.20170292     -1.34840608
Si            124.16940154     67.48833402      9.02204883      14     -0.69493246     -1.09565412     -1.32969150      0.40658299      0.66414626     -0.13915444
Si            126.48492139     65.66592405      9.14021261      14      0.53623243     -1.85127796     -0.04966973      0.74323295      1.14644427     -1.20795961
Si             39.84828803     68.64836047      9.36007013      14     -0.08735093      0.03819442      0.35686002     -1.18510423      0.64174583     -0.95191837
Si             60.56957784     69.04309032      9.27909401      14      0.83302298      0.73829353     -0.06104974      0.27541868      0.45151438      1.23492657
Si             71.10206186     68.85599613      9.22963618      14     -0.26527937     -1.99559885      1.15633913      1.27599566      1.30014168     -0.34186157
Si            109.95987359     67.13353090      9.19874250      14      0.20837265      0.72578341     -0.21692785     -0.93958398     -0.97246251     -1.23458477
Si             54.97491177     69.01248231      9.34489186      14     -0.46982210     -0.00787688     -1.43973208      1.41663194      0.68137008     -0.16935349
Si            106.89634067     66.35029937      9.05098851      14     -1.68188933     -0.37369357     -1.19225321      0.98510450      1.57368072      0.86730912
Si            119.85951207     67.14932119      9.05792536      14      0.34050528     -0.27778787     -0.98517617     -0.25465439      0.25197025      1.34742573
Si             22.32384019     67.47459086      9.47524435      14      0.24239522     -1.25559983     -0.66028979      0.72704492      2.49104959      1.07242339
Si             68.47368098     67.41467480      9.15303829      14      0.49851508     -1.10625694      0.04665110      1.85853358     -1.36961963      0.87844741
Si             82.51660559     67.97722786      9.20565452      14     -0.18392836     -0.41736700     -0.47490780      1.38858912      0.44578186     -0.40888557
Si             85.59566170     67.59518128      9.30272030      14      1.13306179     -0.11806432     -1.13859070     -0.52405603     -1.57647844      0.72908008
Si            114.82093870     67.02407768      9.11898260      14      0.99534652      0.95340749      1.09804573     -0.30320860      0.03417455     -1.24659726
Si             10.95179123     66.53166847      9.26912454      14     -0.47789947      1.34703787      0.56717139     -0.81371123     -1.30540224     -0.57294707
Si             65.80486165     68.66547375      9.32135453      14     -0.97404481     -0.34106534     -0.10190797     -2.33399010      1.06378626     -0.21219337
Si             92.13084412     66.49315162      9.30244151      14      1.32276237      1.74070632     -1.21584677     -1.05028823     -0.47938094     -1.32043333
Si             95.19400793     65.86633091      9.20049779      14     -1.01371091     -0.69491105     -0.20936068      0.70505486     -0.06032708     -0.74995542
Si            112.27937591     65.16921522      9.12014078      14      0.52748337     -0.52491220     -0.11099019     -0.01893786      0.75495414      0.76820043
Si              8.08193660     67.48955505      9.14340244      14     -0.00000000     -0.03086482     -0.00000000     -0.90417061     -0.39907601     -0.15431381
Si             13.69958517     67.63745863      9.18327454      14      0.01656000     -1.19934767     -0.29050996      0.10446423      1.01482834      0.22715020
Si             27.00379947     68.27097549      9.37131745      14      1.97137570      0.09518932     -0.40848941     -1.96829972      1.41427074      0.53095763
Si             53.08629411     66.70592982      9.29932027      14     -0.67448959     -0.03992193     -1.08937018      0.33890514     -0.26717027      0.07024580
Si            122.18777961     65.12363637      9.07652028      14     -0.01282870     -0.88420526     -0.26177616     -0.12801392     -0.13995598      2.07456936
Si             36.95999571     67.59869630      9.37726073      14     -0.35674126     -0.05478412     -0.60207379      0.93753525     -0.15902032      0.88213890
Si             50.23566816     67.62237104      9.25304296      14      0.45897062      1.04626357      0.06576910      1.25000461      0.93580170      2.15810570
Si             63.08764297     67.20523305      9.23112742      14     -0.65768967      0.73175475      0.61376237      0.29104666      0.21009988      1.82740023
Si             42.22172406     66.87906194      9.30954458      14      0.87087753      0.99796848     -0.70640704      0.90675226      0.27858499     -0.48506699
Si              6.42629802     64.91448167      9.02958759      14     -0.00000000     -0.89676357     -0.00000000      0.06819324     -0.17296620      0.18334256
Si             19.53819279     66.38699752      9.31597448      14      1.95383732      0.56807363     -0.47211423     -0.10361357     -0.07243971      2.11600549
Si             45.13926711     67.74967549      9.28095868      14     -0.11095015      0.39776717      0.29442639     -0.59216172      1.24488820      1.31867836
Si             77.88497136     65.87234548      9.09618436      14      0.43337525     -0.31944144      0.28363052     -1.19363878     -0.48404730      0.58011566
Si             80.86469555     65.42634499      9.29249325      14      0.03203232      0.81926513     -0.51203171      1.17005304     -0.15243430     -1.14594243
Si            126.87698204     62.81444795      9.16872914      14      0.80886940     -1.88595331      1.40322898      0.04987091     -0.38669219     -1.04679631
Si             47.64196894     66.00037515      9.29019588      14      1.02505738      1.12045330     -0.19714091      1.61691607      0.33411360      0.61447697
Si             24.98153929     65.91603019      9.49692212      14     -0.94301375     -1.06158805      1.32109572     -0.42251210      2.39474644      0.35589927
Si             36.20685092     64.60485480      9.37032468      14      0.17700192      0.26012372     -0.41681077     -2.26099695      2.40304350      0.46425844
Si            100.17498069     64.49159132      9.12515752      14      0.64469509     -0.28698298      0.16029129     -0.21800187     -0.22062710     -0.83294726
Si             33.39301456     63.44686341      9.32130611      14     -0.94119009      1.84707603     -0.14665217     -0.43992107      0.84065410      1.34677722
Si             87.00826485     64.79330679      9.35855893      14     -0.08401152      1.39782507      0.75865770     -0.57310923      0.75097030     -0.67969345
Si             90.10153951     64.15580251      9.31932449      14      1.34297247     -0.25695756      0.42914048     -1.25504774      0.30956874      1.25032650
Si             68.34569839     64.26712606      9.15967767      14      1.08084107      0.99062971     -0.11734974     -0.53885239      0.92071010     -0.11345663
Si             97.23361687     63.50281423      9.21025537      14     -1.49868121      0.36070294     -0.74322279     -2.13196871     -1.53766597      0.08378004
Si            107.13803660     63.24869496      9.10347918      14     -0.72670153      0.64916811      0.56183625      0.04401406     -0.31487880      0.36443439
Si            125.27838958     60.32500964      9.21027162      14      0.14302365      0.43889968     -0.19389466     -0.66059723      0.56618700      0.39401040
Si             15.18199861     64.96977647      9.25212708      14     -1.76720848     -0.16879135      0.49855888     -0.16710239      0.93910199     -0.75229944
Si             17.98852538     63.89117359      9.35740777      14     -0.67656727      0.90178871      1.25243299      0.24760411      0.60111410      2.76843409
Si            102.03374000     61.99936759      9.20865273      14     -0.86234646      0.95907818      0.67390017     -1.03783012     -0.06218924     -1.16896591
Si            109.59005440     61.29193229      9.12992033      14     -0.91890655     -1.44647682      0.02598446     -0.83712123      2.02980050      0.02571389
Si            112.61625789     62.16637878      9.05985237      14      1.64761118      0.57112803      0.44533374     -0.94776959      2.00900701      0.07944958
Si            122.57371145     61.87602526      9.12460903      14      0.30142444      1.27697283     -0.56492439     -0.72627951      1.93381322      1.29742912
Si             38.64223171     62.77114191      9.27143997      14      0.35627014      2.35444232      1.11669843     -0.27050333      0.10763448      0.10462431
Si             57.66708505     64.77443427      9.21108461      14     -0.05602879     -1.33021816     -1.63693628     -0.66199582     -0.16491950     -0.43235172
Si             62.86898249     64.07749072      9.20507869      14      0.09088310      0.04256274      0.70230327      0.00415208      0.98268295     -0.88739593
Si            104.94518391     61.08965110      9.12253994      14      0.66426084      1.13554563      0.19788180      0.44854480      0.10056648      0.44024833
Si            117.61570928     62.21882711      9.12204640      14      0.30297219      1.04379113     -0.97624997      1.46014677      1.90517482      2.06751378
Si             30.67529514     64.89433602      9.33299185      14     -0.71723878     -0.03427576      0.90510084      2.44058680      0.66117939      0.02877227
Si             74.96304137     64.85295841      9.17337156      14      0.68151863     -1.16384618      0.18157177      0.54632521     -0.56491518     -0.44701703
Si             82.26896434     62.67498830      9.25411949      14     -0.20075204     -1.13310056     -1.76122248     -0.88032457     -0.04451983     -0.52024498
Si            120.01474261     60.21461034      9.12178633      14      0.45499107     -0.19205441      0.38466365     -0.86748582     -0.27672152      1.34160830
Si             10.88940957     63.43455424      9.21473839      14      1.18493688      0.74967233      0.85784874      0.94688914     -1.09182077     -0.33056762
Si             13.58200193     62.42534864      9.22884957      14     -0.54994931     -0.90591643      0.09941298     -0.44651017     -0.75664252     -0.42506051
Si             28.55758974     62.65120176      9.24198372      14      0.18936177      1.69884284      0.36588239     -0.27446931      0.45357682      1.73200658
Si             54.65042142     64.01911184      9.23576850      14     -0.10087982      0.98989593      0.10613367      1.44815816      3.46491519      0.09343334
Si             73.49084524     62.19719607      9.21747292      14     -1.69134174     -0.63616266     -0.80083225      1.01950183     -1.64467092     -0.20109913
Si             70.38898452     62.14845930      9.14467636      14     -1.00671509     -0.53497879     -0.60096947      1.84684275      0.62950279     -0.44594741
Si              8.03422992     62.45662953      9.11905878      14      0.00000000      0.80523384      0.00000000      0.40295367     -2.38766729     -0.14880404
Si             25.45416010     62.97420379      9.45395808      14     -1.39168767      0.16090863      0.63447154      0.82371154     -0.64441375     -0.12635946
Si             46.82741639     63.09231945      9.25026264      14      0.71548689      0.41435600      0.27204846      2.12654096      0.14978766      0.69600132
Si             65.62646400     62.77760815      9.15274987      14     -0.58244117      0.40748659     -0.52218367      0.33088363      0.44597066      0.09918105
Si             85.23549773     62.22917037      9.29065486      14      1.49984407      0.44385582      1.05006529      0.32024875     -1.93320528     -0.06119188
Si            115.14320963     60.47864631      9.05242233      14      0.17337435     -0.33071256      0.99987879      0.17180547      0.08821531      0.50873072
Si             41.36919339     64.05268219      9.21086434      14     -0.87248850      0.32347180     -0.26033301      1.94189732     -1.20865971      0.30934233
Si             43.88901765     62.34669321      9.18061883      14      0.28503080      0.73079671      0.17619058     -0.63945457     -1.49130106     -0.38825956
Si             15.29411593     59.90545369      9.31616059      14     -1.45012564      0.50056306     -0.56996418     -2.24684894     -0.56221992     -0.80103996
Si             18.10008829     60.89599547      9.34893289      14      0.37491845      0.75103941      0.51553498      2.03532161      0.41192896      0.95034604
Si             20.86954383     59.50111849      9.40257977      14      2.14967933     -0.83865204      0.12178293     -0.03561712      0.84587218     -0.86432612
Si             23.80361403     60.40959823      9.45422045      14      0.79716692     -1.12472573      0.00677654     -0.51083299      0.75336443     -0.20116307
Si             59.99424934     62.91423864      9.26034001      14     -0.53727070     -0.47333907     -0.54360109      2.22526049     -0.86179636      0.64338226
Si             87.36792713     59.95294478      9.21318490      14      1.02144491     -0.08394163      0.63975907     -1.09045868      0.35181734      0.30939100
Si            105.97259635     58.12693226      9.24546332      14     -1.09473808      0.93741889     -1.42049639     -0.17058636      2.27978868     -3.11265124
Si            109.02769267     58.28030509      9.15133420      14      1.68143809      0.11465462     -0.21306439      0.91679154     -0.87103269     -0.62715069
Si             51.28527625     59.69080015      9.26974117      14      0.16607806     -0.95532146      1.64843371     -1.58950049      0.36821915      0.96577905
Si             97.33563405     60.32571046      9.26443323      14     -0.64811317     -0.17589205      0.09611851     -0.20617810      1.16491591     -0.89843902
Si             53.97359004     61.13225404      9.16001190      14     -2.14532935     -0.34183489      1.15398034     -1.68690487     -1.59273803     -1.75032142
Si             77.92952690     58.84437523      9.11602053      14     -0.13155925      0.14294850      1.25741444     -1.00727692      0.12045384     -0.73657333
Si            100.31104801     59.39632364      9.24691090      14      1.37667848     -0.41044149      0.77810070      0.41004629     -0.16296865     -1.02444472
Si              6.99771446     59.64947285      9.02154471      14      0.00000000      0.93539844      0.00000000      0.15475810     -1.74350944      0.07144582
Si             33.10993433     60.33096151      9.34086805      14      0.11368984     -0.23135240     -1.21072444     -0.52414555      3.10279785      0.61007708
Si             48.29989252     60.37417980      9.26475335      14      1.25910774      0.86710374      0.54075253      0.87697422     -0.46527390      0.49985131
Si             74.99465936     59.46532225      9.06852525      14      1.74596722      1.44471641      0.14959831     -0.01203757     -0.24068694      1.99622297