7841
OrigWidth=248.88811043 OrigHeight=67.43324632 cell_origin="-131.94405521    -41.21662316     -9.93808612" strain=0.10000000 is_cracked=F n_efield_old=3 energy=-149999.77095204 cutoff=10.58354498 nneightol=1.20000000 pbc="T T T" Lattice="263.88811043       0.00000000       0.00000000       0.00000000      82.43324632       0.00000000       0.00000000       0.00000000      19.87617225" Properties=species:S:1:pos:R:3:Z:I:1:dipoles:R:3:clamp_mask:I:1:pos_orig:R:3:orig_index:I:1:map_shift:I:3:n_neighb:I:1:force:R:3:charge:R:1:fixdip:L:1:efield:R:3:efield_old1:R:3:efield_old2:R:3:efield_old3:R:3
Si             76.86915470     78.06889673      8.92254446      14      0.00000000      0.00000000      0.00000000       1     76.86391670     78.08586401      8.92185886       0       0      -1       0      88      0.00714733     -0.02006974      0.00098838      2.85911880    F     -0.78963781     -4.16773672     -1.03961243      0.21627996     -2.42154830     -0.17110809      0.21627996     -2.42154830     -0.17110809      0.21611869     -2.42184900     -0.17096536
Si             73.81814043     78.28441605      8.92893871      14      0.00000000      0.00000000      0.00000000       1     73.81156829     78.29318823      8.92875677       1       0      -1       0      88      0.00831693     -0.01258226      0.00009438      2.85911880    F      0.02950946     -3.90833490     -1.10840051     -0.61310247     -2.00261304     -0.24608870     -0.61310247     -2.00261304     -0.24608870     -0.61315854     -2.00242534     -0.24599050
Si             69.38146035     75.05590500      9.02268338      14      0.00000000      0.00000000      0.00000000       1     69.37286196     75.05870265      9.02253423       2       0      -1       0     121      0.01054329     -0.00471577      0.00028997      2.85911880    F      0.36109322     -1.35317644     -1.36863775      0.31990967     -1.50957256     -1.26621667      0.31990967     -1.50957256     -1.26621667      0.32015114     -1.50956839     -1.26627004
Si             22.53267032     77.22147971      9.25858947      14      0.00000000      0.00000000      0.00000000       1     22.52608465     77.21278952      9.25888899       3       0      -1       0      85      0.00173984      0.00303057     -0.00052339      2.85911880    F      0.18017792     -3.64081071     -0.90249781     -0.02920513     -2.05627070     -0.12315911     -0.02920513     -2.05627070     -0.12315911     -0.02921675     -2.05639012     -0.12317488
Si             66.92097035     76.71471605      8.94680503      14      0.00000000      0.00000000      0.00000000       1     66.91444011     76.71821797      8.94652763       4       0      -1       0     101      0.00868869     -0.00488273      0.00022815      2.85911880    F      0.14164035     -3.38108526     -0.63801321      0.16588010     -1.89475996     -0.02231130      0.16588010     -1.89475996     -0.02231130      0.16586768     -1.89489122     -0.02231401
Si             72.35543815     75.71055275      9.01536247      14      0.00000000      0.00000000      0.00000000       1     72.34023883     75.72579818      9.01475943       5       0      -1       0     103      0.01662031     -0.01896602      0.00062236      2.85911880    F      0.00772366     -1.25369333     -1.39410097     -0.00846555     -1.45921963     -1.43472671     -0.00846555     -1.45921963     -1.43472671     -0.00854742     -1.45926426     -1.43477660
Si             83.92773897     76.29541213      8.97069347      14      0.00000000      0.00000000      0.00000000       1     83.79970281     76.38311920      8.97191427       6       0      -1       0     100      0.08921321     -0.07076666     -0.00132486      2.85911880    F     -0.65243241     -3.63115476     -0.91381831     -0.99695249     -1.98848658     -0.36923699     -0.99695249     -1.98848658     -0.36923699     -0.99689820     -1.98849754     -0.36911118
Si             86.95639675     76.33971466      8.99080875      14      0.00000000      0.00000000      0.00000000       1     86.81795422     76.52392481      8.98829867       7       0      -1       0      97      0.09716273     -0.13065804      0.00086248      2.85911880    F      0.79074603     -2.99102815     -1.00169393      0.92987729     -1.55883133     -0.34769363      0.92987729     -1.55883133     -0.34769363      0.93043203     -1.55879905     -0.34765238
Si             96.69633394     76.79578036      9.03592425      14      0.00000000      0.00000000      0.00000000       1     96.48991001     77.27198050      9.03877001       8       0      -1       0      93      0.13437270     -0.30966144     -0.00304725      2.85911880    F      0.48100231     -3.66139410     -1.07760992      0.94112200     -1.82593786     -0.39854223      0.94112200     -1.82593786     -0.39854223      0.94169758     -1.82615919     -0.39861149
Si             30.70604010     76.33651483      9.19002612      14      0.00000000      0.00000000      0.00000000       1     30.70166895     76.33526080      9.19035063       9       0      -1       0     100      0.00158420      0.00042989     -0.00031200      2.85911880    F     -0.92761328     -4.06508021     -0.95074267      0.16421063     -2.44107528     -0.39005886      0.16421063     -2.44107528     -0.39005886      0.16421426     -2.44105498     -0.39004113
Si             37.67624405     76.28541901      9.09463470      14      0.00000000      0.00000000      0.00000000       1     37.67602921     76.28470304      9.09418013      10       0      -1       0     101      0.00006777     -0.00025058      0.00010378      2.85911880    F      0.83366828     -3.32049880     -0.66471062      0.18032990     -2.03847294     -0.07904209      0.18032990     -2.03847294     -0.07904209      0.18033238     -2.03846690     -0.07902372
Si             40.68638264     76.34350516      9.16004057      14      0.00000000      0.00000000      0.00000000       1     40.68622853     76.34316240      9.15943504      11       0      -1       0     100      0.00009298      0.00014016      0.00009892      2.85911880    F      0.74236730     -1.92831187     -1.52516673      0.41619336     -1.86726570     -1.21828391      0.41619336     -1.86726570     -1.21828391      0.41619447     -1.86725081     -1.21828918
Si             42.95475196     78.19837754      9.07140687      14      0.00000000      0.00000000      0.00000000       1     42.95418765     78.19848153      9.07069520      12       0      -1       0      75      0.00006522      0.00003069      0.00014561      2.85911880    F     -1.45265307     -3.53467017     -1.24803958     -1.18163650     -1.44723648     -0.44579785     -1.18163650     -1.44723648     -0.44579785     -1.18162982     -1.44723448     -0.44579478
Si             45.63693318     76.83132915      9.06181742      14      0.00000000      0.00000000      0.00000000       1     45.63640349     76.83116660      9.06122812      13       0      -1       0      96      0.00016025      0.00017153      0.00015009      2.85911880    F     -0.35490432     -3.08958199     -0.96971988      0.29577294     -1.83868740     -0.37272023      0.29577294     -1.83868740     -0.37272023      0.29577395     -1.83867767     -0.37271765
Si             27.81479696     77.18120068      9.23883111      14      0.00000000      0.00000000      0.00000000       1     27.81028909     77.17938400      9.23918569      14       0      -1       0      92      0.00199966      0.00130098     -0.00038247      2.85911880    F     -0.96112617     -2.82172602     -1.18462900     -0.83837320     -1.14604299     -0.44940839     -0.83837320     -1.14604299     -0.44940839     -0.83833743     -1.14607472     -0.44943789
Si            101.54174265     74.01372471      9.14042821      14      0.00000000      0.00000000      0.00000000       0    101.42435477     74.61361179      9.14353548      15       0      -1       0     115      0.00319648     -0.04753418      0.00122643      2.85911880    F     -0.03776540     -0.97263714     -1.49928600     -0.06443641     -0.83440243     -0.99087945     -0.06443641     -0.83440243     -0.99087945     -0.06433242     -0.83438718     -0.99061589
Si             25.17186955     75.78356706      9.31107243      14      0.00000000      0.00000000      0.00000000       1     25.16849076     75.77957610      9.31140033      16       0      -1       0     104      0.00120008      0.00328608     -0.00045826      2.85911880    F     -0.34871300     -1.89255897     -1.51574709     -0.32961157     -1.98741122     -1.38669927     -0.32961157     -1.98741122     -1.38669927     -0.32964230     -1.98739898     -1.38666229
Si             49.82582995     73.98330347      9.09193724      14      0.00000000      0.00000000      0.00000000       1     49.82542547     73.98300535      9.09157714      17       0      -1       0     116     -0.00003197      0.00004374      0.00004647      2.85911880    F      0.41690932     -1.37190579     -1.30870828      0.29521435     -1.73378446     -1.12760450      0.29521435     -1.73378446     -1.12760450      0.29522107     -1.73377258     -1.12760093
Si             51.76445601     76.16281691      9.01341512      14      0.00000000      0.00000000      0.00000000       1     51.76428262     76.16243939      9.01321487      18       0      -1       0      97      0.00024275      0.00000638      0.00005595      2.85911880    F     -1.26751420     -3.06060452     -0.94512902     -1.17515623     -1.63136674     -0.27878126     -1.17515623     -1.63136674     -0.27878126     -1.17516009     -1.63135855     -0.27877977
Si             54.75454559     75.83813013      9.00251416      14      0.00000000      0.00000000      0.00000000       1     54.75454820     75.83866185      9.00227159      19       0      -1       0      94      0.00022891     -0.00017322      0.00005501      2.85911880    F      0.66328115     -3.18640296     -0.91171962      0.90813076     -1.72187428     -0.34925167      0.90813076     -1.72187428     -0.34925167      0.90811671     -1.72187945     -0.34924427
Si             92.04712362     74.01602474      9.06939845      14      0.00000000      0.00000000      0.00000000       1     91.88431080     74.28101987      9.06616357      20       0      -1       0     117      0.10862887     -0.18390698     -0.00001436      2.85911880    F     -0.00027437     -1.13942119     -1.53694142     -0.13210144     -1.63135935     -1.37011143     -0.13210144     -1.63135935     -1.37011143     -0.13131764     -1.63142671     -1.37009817
Si             93.66965456     76.53639082      9.01815155      14      0.00000000      0.00000000      0.00000000       1     93.51412150     76.80859439      9.02847669      21       0      -1       0      93      0.10634575     -0.19272897     -0.00593365      2.85911880    F     -0.01339959     -3.59700148     -1.02195885     -0.58645019     -1.90689126     -0.37643048     -0.58645019     -1.90689126     -0.37643048     -0.58617587     -1.90729902     -0.37655771
Si             33.89495388     72.12660686      9.20827844      14      0.00000000      0.00000000      0.00000000       0     33.89520927     72.12558285      9.20818355      22       0      -1       0     141     -0.00049514      0.00049072     -0.00003619      2.85911880    F      0.19116516     -0.80628655     -1.19830080      0.31155780     -1.02281458     -1.12364655      0.31155780     -1.02281458     -1.12364655      0.31154265     -1.02281817     -1.12366369
Si             61.43497869     75.41225654      8.97342085      14      0.00000000      0.00000000      0.00000000       1     61.43259422     75.41269047      8.97317891      23       0      -1       0     100      0.00405842     -0.00108742      0.00040912      2.85911880    F      0.54411063     -2.80313255     -0.49496413      0.22302658     -1.70022127     -0.05607995      0.22302658     -1.70022127     -0.05607995      0.22310032     -1.70027790     -0.05605722
Si             79.47389496     73.06813803      9.04097998      14      0.00000000      0.00000000      0.00000000       0     79.42423794     73.07887363      9.04160319      24       0      -1       0     133      0.01151845     -0.01200704     -0.00020563      2.85911880    F     -0.28550638     -0.68694073     -1.31642554     -0.36001021     -0.98638509     -1.11151039     -0.36001021     -0.98638509     -1.11151039     -0.36009578     -0.98627723     -1.11175739
Si             17.36261181     75.11374221      9.27358635      14      0.00000000      0.00000000      0.00000000       1     17.36063671     75.09445675      9.26982862      25       0      -1       0      99     -0.00414465      0.00982142      0.00238641      2.85911880    F      1.39170395     -2.99600568     -0.64993526      0.50126915     -1.63903166     -0.12393469      0.50126915     -1.63903166     -0.12393469      0.50171411     -1.63904867     -0.12405769
Si             20.35863268     75.26883104      9.34428212      14      0.00000000      0.00000000      0.00000000       1     20.35635895     75.26020608      9.34465092      26       0      -1       0     107     -0.00154128      0.00433493     -0.00014680      2.85911880    F      0.76162587     -1.75371260     -1.42326710      0.64897381     -1.78358513     -1.22435002      0.64897381     -1.78358513     -1.22435002      0.64877658     -1.78367324     -1.22440800
Si             56.44617320     73.41812766      9.06081855      14      0.00000000      0.00000000      0.00000000       1     56.44534753     73.41827153      9.06046882      27       0      -1       0     116      0.00079219      0.00008909      0.00005840      2.85911880    F     -0.24130838     -1.41826056     -1.30925147     -0.13286526     -1.62396584     -1.32394624     -0.13286526     -1.62396584     -1.32394624     -0.13289015     -1.62397452     -1.32395097
Si             64.39376955     75.15807041      9.04180634      14      0.00000000      0.00000000      0.00000000       1     64.39077255     75.15794598      9.04160086      28       0      -1       0     104      0.00471713     -0.00057695      0.00010072      2.85911880    F      0.66863663     -1.85157666     -1.41570434      0.57154887     -1.66267650     -1.20868024      0.57154887     -1.66267650     -1.20868024      0.57163051     -1.66272957     -1.20869626
Si             74.63799869     73.75261783      9.03709835      14      0.00000000      0.00000000      0.00000000       0     74.61171751     73.76955919      9.03741045      29       0      -1       0     131      0.01061926     -0.00844286     -0.00045731      2.85911880    F      0.54743430     -0.42286211     -1.22946347      0.52149517     -0.94850374     -0.79275841      0.52149517     -0.94850374     -0.79275841      0.52144416     -0.94821463     -0.79279115
Si             77.31506139     75.21766763      9.02661897      14      0.00000000      0.00000000      0.00000000       1     77.28056710     75.23736015      9.02692694      30       0      -1       0     107      0.03198580     -0.02095691     -0.00043301      2.85911880    F     -0.64508684     -1.55005158     -1.10739883     -0.58242584     -1.68146924     -1.06532878     -0.58242584     -1.68146924     -1.06532878     -0.58263540     -1.68143555     -1.06535990
Si             82.43456351     73.77628232      9.04286582      14      0.00000000      0.00000000      0.00000000       1     82.36250325     73.83724362      9.04239355      31       0      -1       0     119      0.05724453     -0.06061724      0.00030273      2.85911880    F      0.01737414     -1.51771544     -1.12294964     -0.04938979     -1.70777931     -1.24945416     -0.04938979     -1.70777931     -1.24945416     -0.04858156     -1.70794334     -1.24921307
Si             36.51528213     73.60290328      9.18651553      14      0.00000000      0.00000000      0.00000000       1     36.51525974     73.60231693      9.18615528      32       0      -1       0     128     -0.00022149     -0.00015505      0.00002978      2.85911880    F      0.12091350     -1.30750172     -1.11808249      0.19937184     -1.57074854     -1.11106810      0.19937184     -1.57074854     -1.11106810      0.19940871     -1.57076097     -1.11106428
Si             41.63129980     73.44198465      9.14778671      14      0.00000000      0.00000000      0.00000000       0     41.63114317     73.44171035      9.14723832      33       0      -1       0     122      0.00008398      0.00024013      0.00007609      2.85911880    F     -0.13037133     -0.66046885     -1.21753206     -0.27353620     -1.27753978     -0.87686673     -0.27353620     -1.27753978     -0.87686673     -0.27351874     -1.27753635     -0.87687255
Si             46.77196636     74.04834013      9.10747207      14      0.00000000      0.00000000      0.00000000       1     46.77145410     74.04809543      9.10699310      34       0      -1       0     123     -0.00000016      0.00009722      0.00011217      2.85911880    F     -0.37511433     -1.06990939     -1.44936321     -0.32826615     -1.43175299     -1.52667541     -0.32826615     -1.43175299     -1.52667541     -0.32826812     -1.43174543     -1.52667766
Si             88.96299509     74.14659242      9.05299175      14      0.00000000      0.00000000      0.00000000       1     88.81709809     74.32293774      9.05173779      35       0      -1       0     114      0.09913771     -0.12912061      0.00056694      2.85911880    F      0.04047511     -1.78261875     -1.37368652      0.12746432     -1.79538990     -1.30601585      0.12746432     -1.79538990     -1.30601585      0.12713573     -1.79554292     -1.30593844
Si             93.87632894     71.54661043      9.08150470      14      0.00000000      0.00000000      0.00000000       0     93.78298295     71.80300794      9.08626669      36       0      -1       0     141      0.00542333     -0.03164704      0.00011374      2.85911880    F      0.99359041     -0.58329430     -1.35538208      0.64715400     -1.06941542     -0.77131666      0.64715400     -1.06941542     -0.77131666      0.64692305     -1.06945880     -0.77139274
Si             65.43250135     72.27715298      9.04433387      14      0.00000000      0.00000000      0.00000000       0     65.42942122     72.27743531      9.04401103      37       0      -1       0     132      0.00258949     -0.00125480     -0.00006369      2.85911880    F      0.14414526     -0.71864712     -1.16577650      0.26718609     -1.09268851     -1.07446735      0.26718609     -1.09268851     -1.07446735      0.26721612     -1.09269090     -1.07449134
Si             18.41233142     70.69666783      9.31052108      14      0.00000000      0.00000000      0.00000000       0     18.41856937     70.69058354      9.31155148      38       0      -1       0     141     -0.00519420      0.00442884     -0.00044505      2.85911880    F      0.55874009     -0.19066747     -1.09763984      0.61820275     -0.53320921     -0.75322235      0.61820275     -0.53320921     -0.75322235      0.61838665     -0.53303156     -0.75339525
Si             59.49872201     73.15502065      9.05476145      14      0.00000000      0.00000000      0.00000000       1     59.49794643     73.15480622      9.05438257      39       0      -1       0     126      0.00082690      0.00020409     -0.00000174      2.85911880    F      0.12906767     -1.34988174     -1.33434409      0.11602255     -1.62580285     -1.24399076      0.11602255     -1.62580285     -1.24399076      0.11605735     -1.62581195     -1.24400405
Si             13.12064387     71.58437442      9.32135762      14      0.00000000      0.00000000      0.00000000       0     13.16939408     71.49314324      9.33347283      40       0      -1       0     100     -0.01074741      0.00040747     -0.00240807      2.85911880    F      0.87685934     -1.32426323     -1.29231067      1.05068894     -1.29669969     -1.26852106      1.05068894     -1.29669969     -1.26852106      1.05286620     -1.29643870     -1.26901410
Si             96.90918002     71.80603438      9.10110877      14      0.00000000      0.00000000      0.00000000       0     96.74473655     72.18188060      9.10385690      41       0      -1       0     142      0.00250403     -0.02520977     -0.00116295      2.85911880    F     -0.66010148     -0.58185951     -1.34927051     -0.35255513     -1.16232378     -0.77257411     -0.35255513     -1.16232378     -0.77257411     -0.35263013     -1.16250282     -0.77241791
Si             10.39545661     72.57860486      9.24896024      14      0.00000000      0.00000000      0.00000000       1     10.34630015     72.52517878      9.34491762      42       0      -1       0      80      0.01901753      0.02992560     -0.05579704      2.85911880    F      3.07413917     -2.90271635     -1.17124288      2.07452308     -1.05086647     -0.19027386      2.07452308     -1.05086647     -0.19027386      2.07389481     -1.05222398     -0.19044912
Si             16.01977148     72.48213778      9.32401349      14      0.00000000      0.00000000      0.00000000       1     15.98817595     72.46495948      9.32777529      43       0      -1       0     119      0.01220704      0.01031326     -0.00209132      2.85911880    F      0.49811979     -1.23015257     -1.39728695      0.70547606     -1.32013525     -1.23688658      0.70547606     -1.32013525     -1.23688658      0.70429984     -1.32113440     -1.23705904
Si             25.55937331     72.83531133      9.27971346      14      0.00000000      0.00000000      0.00000000       0     25.56265477     72.83219662      9.27992533      44       0      -1       0     132     -0.00087349      0.00027218      0.00031238      2.85911880    F      0.59217940     -0.57943674     -1.25711943      0.51182771     -1.01812781     -0.72484381      0.51182771     -1.01812781     -0.72484381      0.51186499     -1.01817615     -0.72476859
Si             28.42996009     72.02582088      9.25594813      14      0.00000000      0.00000000      0.00000000       0     28.43183646     72.02358474      9.25611136      45       0      -1       0     135     -0.00067193     -0.00096720      0.00012916      2.85911880    F     -0.62243872     -0.61363264     -1.10641122     -0.55285279     -1.21512542     -0.75680716     -0.55285279     -1.21512542     -0.75680716     -0.55295883     -1.21508191     -0.75679395
Si             39.02818690     71.82620589      9.16569663      14      0.00000000      0.00000000      0.00000000       0     39.02810920     71.82572944      9.16529974      46       0      -1       0     133      0.00001133      0.00023050      0.00001364      2.85911880    F      0.05576966     -0.52411864     -1.18182889      0.10900724     -0.89669811     -0.99931178      0.10900724     -0.89669811     -0.99931178      0.10900699     -0.89669256     -0.99930546
Si             68.50052446     72.14708133      9.04500076      14      0.00000000      0.00000000      0.00000000       0     68.49710628     72.15011158      9.04483202      47       0      -1       0     133      0.00216520     -0.00273701      0.00002712      2.85911880    F     -0.18645790     -0.47063601     -1.15619613     -0.02057112     -0.76346870     -1.09790773     -0.02057112     -0.76346870     -1.09790773     -0.02070027     -0.76347964     -1.09792921
Si             87.48105359     71.48508260      9.06142480      14      0.00000000      0.00000000      0.00000000       0     87.39704319     71.67830060      9.06060277      48       0      -1       0     138      0.01712427     -0.02489012      0.00056812      2.85911880    F     -0.37045754     -0.70113455     -1.15614004     -0.19509150     -1.39668513     -0.94796253     -0.19509150     -1.39668513     -0.94796253     -0.19445006     -1.39682450     -0.94817664
Si             44.39116104     72.14896120      9.12787241      14      0.00000000      0.00000000      0.00000000       0     44.39087212     72.14839001      9.12733089      49       0      -1       0     139      0.00008461     -0.00017992      0.00011616      2.85911880    F     -0.54275861     -0.57045581     -1.25922694     -0.57183874     -1.00514652     -1.03211548     -0.57183874     -1.00514652     -1.03211548     -0.57184190     -1.00513493     -1.03211518
Si             84.41593366     71.45956198      9.05533884      14      0.00000000      0.00000000      0.00000000       0     84.34296950     71.53777988      9.05619962      50       0      -1       0     144      0.01542547     -0.02417781      0.00063022      2.85911880    F      0.11391781     -0.71218686     -1.12107140     -0.19722585     -1.18067259     -0.83329975     -0.19722585     -1.18067259     -0.83329975     -0.19777388     -1.18050323     -0.83324712
Si             20.96004666     72.33858093      9.30977937      14      0.00000000      0.00000000      0.00000000       0     20.96645021     72.33047626      9.31090160      51       0      -1       0     128     -0.00423525      0.00051332      0.00028192      2.85911880    F     -0.29819952     -0.82208470     -1.12295984     -0.26691718     -1.18204997     -0.79752590     -0.26691718     -1.18204997     -0.79752590     -0.26695617     -1.18231057     -0.79761054
Si             23.49036276     70.63622573      9.28375758      14      0.00000000      0.00000000      0.00000000       0     23.49988893     70.63060635      9.28414988      52       0      -1       0     148     -0.00433526      0.00157689      0.00005927      2.85911880    F     -0.21479822      0.02780245     -1.20380018      0.00105671     -0.14543224     -1.00646297      0.00105671     -0.14543224     -1.00646297      0.00106680     -0.14545060     -1.00636946
Si             51.46741468     71.42979413      9.09516850      14      0.00000000      0.00000000      0.00000000       0     51.46725397     71.42957039      9.09473593      53       0      -1       0     127     -0.00016796     -0.00004790      0.00006788      2.85911880    F     -0.13069254     -0.66653127     -1.04397128     -0.34099761     -1.26484375     -0.91427201     -0.34099761     -1.26484375     -0.91427201     -0.34100343     -1.26485627     -0.91427602
Si             54.50456381     71.04971378      9.08062912      14      0.00000000      0.00000000      0.00000000       0     54.50442491     71.04958159      9.08024477      54       0      -1       0     132     -0.00015002      0.00074084      0.00003993      2.85911880    F     -0.04705842     -0.64076158     -1.17390975     -0.02113531     -1.18600262     -1.02171905     -0.02113531     -1.18600262     -1.02171905     -0.02113772     -1.18600598     -1.02172219
Si             60.66395208     70.35240251      9.06261896      14      0.00000000      0.00000000      0.00000000       0     60.66280724     70.35243784      9.06216709      55       0      -1       0     147      0.00149962      0.00025715      0.00007026      2.85911880    F     -0.12472073     -0.65367663     -1.11791167     -0.09459894     -0.88139773     -0.96493754     -0.09459894     -0.88139773     -0.96493754     -0.09461459     -0.88144160     -0.96494877
Si             63.66305762     69.79707063      9.06039911      14      0.00000000      0.00000000      0.00000000       0     63.66143031     69.79633377      9.06001908      56       0      -1       0     148      0.00125532      0.00001219      0.00000967      2.85911880    F      0.21946335     -0.09647451     -1.14000369      0.25521264     -0.43165979     -1.02239694      0.25521264     -0.43165979     -1.02239694      0.25511867     -0.43168787     -1.02245172
Si              8.68876549     70.03193613      9.22908692      14      0.00000000      0.00000000      0.00000000       0      8.61344939     70.02552713      9.32155563      57       0      -1       0      79     -0.01540846     -0.00374050      0.00254326      2.85911880    F      3.50950041     -1.79253580     -1.16583411      1.50816529     -1.47337605     -0.22032101      1.50816528     -1.47337604     -0.22032101      1.50903785     -1.47214832     -0.22004967
Si             69.94530497     69.47939992      9.05305013      14      0.00000000      0.00000000      0.00000000       0     69.92925282     69.47823896      9.05295169      58       0      -1       0     154      0.00936112      0.00065667     -0.00011103      2.85911880    F      0.03314182     -0.46310177     -1.10131535      0.00973969     -0.53618471     -0.99607468      0.00973969     -0.53618471     -0.99607468      0.00977551     -0.53615812     -0.99621551
Si             90.79090406     67.02272344      9.06669710      14      0.00000000      0.00000000      0.00000000       0     90.76448557     67.25503704      9.07249170      59       0      -1       0     161      0.01452923     -0.03013167     -0.00066461      2.85911880    F      0.35927760      0.24733033     -1.07883627      0.28719982     -0.20374589     -0.88073867      0.28719982     -0.20374589     -0.88073867      0.28731958     -0.20342895     -0.88048766
Si             47.07751106     67.76879657      9.11685958      14      0.00000000      0.00000000      0.00000000       0     47.07740007     67.76990578      9.11629918      60       0      -1       0     160     -0.00014256     -0.00099138      0.00006579      2.85911880    F      0.32365880     -0.07362256     -0.98173120      0.58424465     -0.31632009     -0.81823729      0.58424465     -0.31632009     -0.81823729      0.58425481     -0.31632422     -0.81823509
Si             72.91663845     68.76696526      9.05335955      14      0.00000000      0.00000000      0.00000000       0     72.89773821     68.76679161      9.05361472      61       0      -1       0     154      0.00890270     -0.00265525     -0.00021454      2.85911880    F     -0.22473680     -0.29470657     -1.08301904     -0.17757993     -0.40180402     -1.03657279     -0.17757993     -0.40180402     -1.03657279     -0.17758832     -0.40188098     -1.03674423