7631
energy=-145881.78445617 cutoff=10.58354498 nneightol=1.20000000 pbc="T T T" Lattice="255.37853149       0.00000000       0.00000000       0.00000000      82.43324632       0.00000000       0.00000000       0.00000000      19.87617225" Properties=species:S:1:pos:R:3:Z:I:1:momenta:R:3:force:R:3
Si            103.37263900     77.45422872      8.96862524      14     -0.09978807     -0.74277477     -0.21416500      0.07661881      0.58660761     -0.19002995
Si              8.79521582     77.66469985      9.08693597      14      0.00000000      0.28788402      0.00000000     -0.63296462     -1.59942705      0.41323099
Si             11.81456698     77.48603710      9.08894775      14      0.78337616     -1.25238794     -1.12735900      0.61976456     -2.11470088      2.27925798
Si             31.36065948     78.46201268      9.40368811      14      1.19819246     -0.19861744     -0.37747869     -1.28732361     -0.11851350     -0.05861500
Si             28.27248090     78.85513748      9.38904536      14      0.18701076      1.26390925      0.87395215      1.46663283     -0.05449402     -0.36355472
Si            100.33696019     77.75033273      8.98538042      14      0.56361488      0.86243813     -2.08983329      0.80647957      0.85219210     -1.29260407
Si             96.08525267     74.41769961      9.26193687      14      0.21325934      1.54054318     -0.27875863      1.45787701     -0.12609272     -0.28514726
Si             49.10341338     77.32153035      9.28623864      14     -0.83081506     -0.65560971     -0.08355749     -0.76588657     -1.50314377      1.36663459
Si             93.59491786     76.01941370      9.08846349      14      1.14451781      0.05660675      1.75067167     -3.32625850      0.86684648     -0.56411218
Si             99.08424368     75.10815305      9.10550549      14     -0.50562921     -0.45048615      1.31981107     -0.08189878     -0.06025131      0.55717213
Si            110.46182321     75.52146674      8.96732487      14      0.18426902      0.68805825      0.77593870      0.03731892     -0.73435280      0.34584346
Si            113.54440218     75.42465488      8.95981871      14     -0.50030752     -0.61405444     -0.71865379      0.67403372     -0.87461475      1.22617187
Si            123.24429183     75.97325405      9.00898473      14     -0.76738232      0.87622364     -0.23571661      0.00174170     -0.63727780     -1.75965272
Si             22.15918933     73.20018874      9.35126697      14     -2.66370762      1.62945716      0.87786597     -0.44100148     -0.22743113      1.20731519
Si             23.97241256     75.43005982      9.18490181      14     -0.51292449      1.65399444      0.52629730      0.12170514     -0.07022894      0.36033961
Si             57.24871881     76.31278603      9.10065295      14     -0.04805647     -0.24713065     -0.27842420     -0.09759046      0.79853047     -0.03501352
Si             64.35793513     76.21370360      9.04063022      14      0.32830881      0.68447879      0.57683233     -0.66873257     -1.58784686      2.66094444
Si             67.37714877     76.21409008      9.17396860      14      0.72291441      0.69172092      1.78285169     -0.46647782     -0.59255716      0.87954601
Si             69.42221360     78.09568721      9.06799761      14      2.04119567     -1.43639632     -0.79193263      2.18993055      1.24672080     -1.02511228
Si             72.14843099     76.73779998      9.11455135      14     -0.22343610     -0.34926844     -0.04242665      0.59327450     -2.18945427      0.83570627
Si             26.83042780     76.34175502      9.33169199      14     -0.02538282      0.13796120     -0.62791513     -0.83075090     -1.29857728      0.24332861
Si             54.39892431     77.22574925      9.18689668      14      0.93030609      0.09294349     -0.14992228     -1.27597907     -0.61746863     -1.03984192
Si            127.86276502     72.68073681      9.10591131      14      1.42365029      1.01022974      0.04484523     -1.67750070     -1.21573129      0.15559523
Si             51.75601480     75.83045559      9.30810049      14     -0.03623843      0.55702491      0.47797485     -0.11724789     -1.18506140     -0.82095404
Si             76.40302576     73.77060597      8.97881462      14      0.81720858      0.40905828      0.35658800      2.43272585      0.09188449      0.57074971
Si             78.37457403     76.07164052      8.99707962      14     -0.02317094      0.25898235      1.10919433     -2.46694997     -0.59995040     -0.28889519
Si             81.28297268     75.61339676      8.90654008      14     -1.22324864     -0.07531637      0.50879621      0.33368929      0.74860059      1.13866262
Si            118.63245280     72.94884082      9.04346281      14      0.65332657      1.76335236     -1.67823891     -0.91414209     -0.44600848     -0.29978687
Si            120.15575459     75.55042126      9.01464068      14     -0.29863823      0.39564432      0.10864320      1.55887484      0.28049354     -0.26107607
Si             32.43387187     75.65460930      9.47543333      14     -1.38476360      0.87345169     -0.17480731      0.20625180     -1.02948779      0.48200468
Si             35.48510859     75.29308573      9.29834889      14     -0.10839694     -0.48686328      2.18826486     -0.66414295      0.72965947      0.23741678
Si             60.40657183     72.20059206      9.16676762      14     -0.50526335     -0.13817606      1.09713794      2.05904673      0.07774577      0.68756555
Si             87.99217173     75.06187658      9.01844540      14      1.01341205      0.28399068      0.10076475      1.85863623      1.03624199     -1.16257061
Si            106.16676302     72.26452931      9.12055373      14     -0.70480515      1.12967986     -0.00056271     -0.76384815      0.18295009      0.31728094
Si             16.69757844     75.06310843      9.13777248      14      1.74164811      0.69154863      0.19848429     -0.30537009     -0.69153244      0.18159549
Si             43.93261977     75.16514108      9.36683430      14     -0.35995831     -0.12464574      1.50135224      1.65498800      1.61507263     -0.50031994
Si             46.93737454     75.29533188      9.30544712      14      1.28763280      0.58426415     -0.89174168     -0.70673178      0.18962432      1.79709167
Si             83.00675423     73.23363032      9.06921599      14     -0.02588661     -0.73157236     -1.85112448     -0.60784284     -0.18435899     -0.39129200
Si             91.02407124     74.48462948      9.03984692      14     -0.26627050     -1.24938303     -0.27038111     -1.75842775      1.22598133      0.80483783
Si            101.30166914     72.95471161      9.17508720      14      1.82014461     -1.86210931     -0.04461187     -0.19830396      0.90893177     -0.80715901
Si            103.96637347     74.51537020      9.02787316      14     -0.38990582     -0.95586825      0.10083911      0.06753623     -0.79237650     -0.18725973
Si            109.07493370     72.85283149      9.08548404      14      0.16014283     -0.44410154     -0.64044723      0.74894498     -0.20662155      0.82964301
Si             14.38218783     72.99325437      9.22746799      14     -0.15670140     -0.48051898     -1.68404636     -0.07467339     -0.79696881     -1.16410299
Si             19.32924756     73.97937208      9.31226816      14     -0.53708257     -0.34935127      0.08980870      0.75127591     -2.63860505     -0.59341494
Si             63.06418121     73.60758255      9.22857624      14      0.85121327      0.73983807      0.91303660     -1.11411056      0.22351231      0.69808430
Si              8.73781169     74.58721655      9.18952026      14     -0.00000000     -0.54948269     -0.00000000     -0.42163157      1.93782065     -0.17771958
Si             68.23694634     73.33097408      9.18726064      14      0.51627194     -1.41316863     -0.04994399     -0.34105666     -0.26848131      0.16074594
Si             73.38892949     73.86507476      9.13806292      14     -1.91484930     -0.10665328      0.39711698     -0.82241036      0.81363391     -0.03744432
Si            115.54611080     73.13750521      8.99004490      14     -1.13245103     -0.79060224     -0.82036674     -0.39186706     -0.61855265      1.09309855
Si            120.28221541     70.25670947      9.03475023      14     -0.39188643      0.82801552     -0.21133793      0.70682615     -0.19633512     -0.68795703
Si             92.23726719     71.75441566      9.15707189      14     -0.69756542      0.01552458      1.56312119     -1.13472417     -0.41736924     -0.37297030
Si             11.81342342     74.56661352      9.22820751      14      1.05075254     -0.27495950     -0.75553838     -1.33640374     -1.02308935      0.89364343
Si             44.93822083     70.82048702      9.43712992      14      0.10324811      0.21315156     -0.80974123     -0.57460049     -0.24178522      1.39448395
Si             86.06624790     72.85663552      9.03194231      14      0.36213538      1.90819467     -0.14037602      2.64178590     -1.57786220      0.20927604
Si             27.86022730     73.52471723      9.37317273      14     -0.71701361      1.12257696      1.06669937     -0.43258063     -0.64525995     -0.64719157
Si             39.49854135     71.61524196      9.49561621      14     -0.54653584      1.53463416      1.35105078      1.59738206      1.40831415      0.95022705
Si            123.34690025     70.64678472      9.02288238      14      0.23899696     -0.78064269      0.09966327      0.03585250      0.14585151     -0.56556809
Si              6.37623565     72.76434535      9.10354784      14     -0.00000000     -1.50055136     -0.00000000      0.96503633      0.30918933      0.62605043
Si             30.88359888     72.95155873      9.38780972      14     -0.41192349     -1.10739367     -0.04687613     -1.39992510      1.32690101      0.43569755
Si             36.71044777     72.53952192      9.44823903      14     -0.06409153      0.91692021     -2.08468157      0.18408874      3.25624919      0.73563095
Si             42.50730042     72.51737550      9.46946501      14     -1.71678024      0.30695687      1.14847727     -0.65970075      0.49755370      0.02098764
Si             22.91863235     70.42066036      9.24964289      14      0.08647864     -0.16019291     -0.14656363      1.90695973     -0.40622784      0.93065704
Si             52.21809863     72.85954960      9.32150688      14      1.74357441     -0.70980962     -1.12065104     -0.33355378      0.32713147     -0.51904356
Si             55.06418486     72.00486334      9.21104575      14      0.71749721     -0.55555777     -0.82009385      0.54841520      0.26821572     -0.79910092
Si             65.49290970     71.78318175      9.13110397      14      0.06988128     -2.35841230     -0.24753803      0.93278609      0.74854971      1.38449101
Si             95.28156250     71.45690626      9.13173263      14     -0.42746173     -0.85172443     -0.20465068     -0.37635818      2.03041521      0.68120482
Si            114.15035154     70.42753182      9.11897711      14     -0.23890878      0.34358702      0.67760951     -1.53144591      1.10790549     -1.23543346
Si             71.01694377     71.92979271      9.12994030      14     -0.96198548      0.95152428      0.93678398     -0.37363978     -0.16976849     -0.49574393
Si            111.07828243     70.48530579      8.97298065      14     -0.46543116      0.81075776     -0.56924917      0.88125772      0.35710469      2.47501994
Si             25.85494161     71.23170198      9.27829286      14      0.06128360     -1.73949454      0.95620182      0.11581264     -2.26102215     -0.39971479
Si             47.62331383     72.37969247      9.39884620      14     -2.12746532      0.64939302     -0.07276432     -0.63877711      0.18466893      2.09052254
Si             50.12745791     70.61200292      9.36489046      14     -2.48727471     -1.22542156      1.38678462     -0.60109956     -0.84830269      0.67638209
Si             78.12524115     71.19604502      8.93598472      14      0.01746123     -1.38424749     -0.12584485      1.92658384      3.96813270     -0.14868485
Si             81.23911777     70.80215789      9.01914285      14      0.15497233      0.85786931     -1.03160995     -2.27526010      1.22945735     -1.08199752
Si             19.95392392     71.12899836      9.36856384      14     -0.42669814      1.28093119      0.50741735      0.06344755      0.40819691     -1.13770437
Si             32.01041028     70.14042641      9.41176336      14      0.05830601      1.37470407      0.76630951     -0.17231985      0.27653680      1.30395457
Si             87.45614393     70.16022612      9.00336025      14     -0.18056693      1.40101848     -0.19485918      0.62366820     -0.99949010      0.13307047
Si             90.41458768     69.28764035      9.06019813      14      1.29840584     -0.31627797     -0.84178943     -1.59683645     -1.68308627     -0.37393860
Si             34.99279404     69.98137315      9.40633044      14     -1.47728455     -0.10372144      0.31405820      1.39788963      1.64008756      1.09330660
Si             96.75416701     68.86561812      9.15704994      14     -1.34428967      0.58654398      0.63842421      1.52576173     -2.35539721      2.34242029
Si            117.34322340     65.56188423      9.12322497      14      0.98136055      0.31317942     -0.17243199      0.94807966     -0.37258573     -1.18608117
Si             15.28919943     70.11749280      9.25002808      14      0.52530705     -0.11559054      0.51445219      1.48624917     -0.41132663     -1.65541230
Si             18.11453850     68.92512593      9.32511419      14      1.01246415     -0.34180375      0.96036454     -1.64569421      0.30401459     -1.42462392
Si             73.72187035     67.60983304      9.11631763      14     -1.83582299      0.74070416      0.97324751      2.22515573     -0.54051381      0.92540556
Si             99.77444006     68.03080460      9.18103342      14      0.88534266     -0.20871778     -0.94029078      0.12180493     -0.18397540      0.24090108
Si            102.13430402     69.94899563      9.23745862      14     -0.31514321      1.10609853      0.65607559      1.39304974     -0.57689853     -0.01159350
Si              6.35653784     69.73412392      9.08650426      14     -0.00000000     -0.39100996     -0.00000000     -0.05094991      0.89469763      0.04645248
Si             30.02258640     67.71346233      9.38135320      14     -0.47457689     -0.24751399      0.00113000     -1.33543126      1.09749389     -1.11493702
Si             57.89765189     67.67784871      9.31357089      14      0.78943501     -0.24102209      0.13339121      1.20798499      0.49921179     -0.66840561
Si             76.41735785     68.78922239      9.03103253      14      0.08730644      0.08619456      0.75310327     -1.30928730     -0.66272118      0.24764750
Si            124.39779899     67.69181153      9.07114207      14     -0.51299545     -0.75688416     -0.16588182     -0.50644753     -0.73639661     -0.20513948
Si            126.69684309     65.85632248      8.99076668      14     -0.41740014      0.40637913     -0.39656344     -0.23852105      0.60083065     -0.34062351
Si             39.70499615     68.62996934      9.42488590      14     -0.92407794     -1.41889848     -1.17050665     -1.54041454     -1.51330497      0.68652417
Si             60.67413273     69.10038523      9.16454949      14     -0.78438152      0.22817958     -0.34709602      0.36839561      2.05208816      1.32123301
Si             70.96145387     68.86318188      9.13747840      14     -0.05949874      0.68405895     -0.40909435      0.42869880     -1.12253081     -0.50231368
Si            110.22587904     67.49518030      9.10370709      14     -0.34130776      0.98489483      0.94474660     -2.32092306      1.50038236     -0.34955922
Si             55.10504002     68.94075363      9.31137283      14      0.30645586     -0.49870419     -0.09908944      1.22022885      0.31396415     -1.00550348
Si            107.21576803     66.77383572      9.10206867      14      0.31631107     -0.33617449     -0.36620227     -2.55410750      1.03188123     -1.25317434
Si            120.01983735     67.16264234      9.05502062      14      0.17622302      1.03214374     -0.08319084     -1.19830479     -0.16845242     -0.30916355
Si             22.26360224     67.46197374      9.23206159      14      0.75543472     -1.27075370      2.14875092      0.98465278      0.48388419      0.99544693
Si             68.32855874     67.37386933      9.13217881      14      0.79886377      0.01398342     -1.03692396     -0.84394465     -2.09255155      0.16430298
Si             82.43678150     68.02610395      9.02717519      14     -0.74385061      0.40195220      0.27453718      1.96880709     -0.52595934     -0.84928575
Si             85.52184037     67.74125728      8.99057718      14     -0.11268080      0.37190485     -0.46422353      0.00912204      0.64547611      0.68203916
Si            114.96158850     67.45531536      9.08626359      14     -0.60344617      0.97078702      1.09831872     -1.97514765      1.59425022      0.85570168
Si             10.98315107     66.41085562      9.13418137      14      0.02716411      0.80399670     -0.78627956     -2.09022329     -1.08896833     -0.28807439
Si             65.64910879     68.72571141      9.11937232      14      0.57112783      0.76666074     -0.98936343     -1.27788582      1.45014068     -0.19911841
Si             92.01624142     66.63413164      9.27173751      14      0.43966067     -0.08907632      0.97099084      2.65166577      0.42500105     -0.21661938
Si             95.16148099     66.23790707      9.29649423      14     -0.65120643     -0.03614302     -0.93531592      0.38180414     -1.35992141      0.25569066
Si            112.46447802     65.59864608      8.98256309      14      0.84834519     -0.77659199     -0.63118651     -0.91096172      0.04383704      2.70330068
Si              8.08193660     67.33443459      9.14340244      14     -0.00000000     -1.67829851     -0.00000000      0.44749480      0.26795204     -0.10545454
Si             13.64935005     67.69507447      9.16086918      14     -0.29927122      1.17174321     -0.11662531      0.07080422     -2.03816060      1.55523302
Si             26.97572697     68.23710946      9.40865241      14     -0.09311010     -0.70217610     -0.25414845     -1.53221430      1.44801897      0.29957468
Si             53.04885551     66.73040951      9.26020119      14      0.65091530      0.12969162     -0.00329095      0.33382393      2.01788168     -0.67665601
Si            122.28523370     65.20538777      8.97216144      14     -0.48685438      0.29800438     -0.00744704      0.45330955      0.80530412      0.72667752
Si             36.82300681     67.67093165      9.38092036      14      0.44840743      1.89308638      0.56236838      1.71076609     -2.11633468      0.72691486
Si             50.12163902     67.57313532      9.35293664      14     -1.26437807      1.91227597      0.08442085      0.29955306     -0.27627795      0.08225564
Si             63.00856178     67.23080157      9.17641366      14      0.16566010      0.15480345     -1.39632325     -0.30300995     -0.71848520      0.35054963
Si             42.11051562     66.84280914      9.43760008      14      0.52287559     -0.85192078      1.33089323      1.17057088     -1.67879708     -0.97126332
Si              6.42629802     64.85170274      9.02958759      14     -0.00000000     -0.72927500     -0.00000000     -0.62197924     -1.74705893     -0.28187770
Si             19.44817929     66.37362815      9.22550485      14      1.79311734     -0.83566755      0.67696511      0.19954077     -0.26658449      0.12534214
Si             45.01213853     67.77052588      9.41680409      14      0.28516941     -0.00781456     -1.25023895      0.55474646      1.02490993     -1.78536866
Si             77.70458506     65.98525880      9.09383372      14      1.21257803      0.54056968      1.14003048     -0.21090278     -0.50618657     -0.14046738
Si             80.67122086     65.48785633      9.08589730      14     -0.65639649      0.81369055      0.23763655      0.24664066     -0.23975419      1.68946356
Si            127.07408798     63.00930855      9.10000974      14     -0.75969345     -0.02999540      0.70809732     -1.12979234     -1.48077400     -1.34743554
Si             47.48809013     66.06002143      9.35248522      14      1.67609763     -0.61525991      0.42660704      0.57659069      0.11296999     -1.18574814
Si             24.92658946     65.95396525      9.35659239      14      0.88666757     -0.98784109     -0.09325575      2.00739307      0.30834928     -0.85432613
Si             35.97517918     64.73779774      9.37420847      14     -0.51506354      0.11455702     -1.29275052     -0.10050471      0.54968372      1.40658103
Si            100.12108496     64.98380281      9.21447700      14      1.45110835      0.56330828     -0.08098169     -0.13007510     -0.69025440      1.61758518
Si             33.22139072     63.30302865      9.39352680      14     -0.62667784     -0.54866961      0.88394816      0.05762713      2.10457115      0.55732836
Si             86.98618878     65.01838966      9.04927311      14      0.02800960      0.24428028     -1.30937599      0.49831210      2.33634355      0.38079153
Si             89.98128821     64.40908505      9.30998019      14      0.06760366      0.91572059      0.38343803      2.09771091      0.25684746     -0.73701651
Si             68.08934465     64.23708699      9.02191140      14     -0.71994619      0.66750362     -1.84347734     -0.92238204      1.82410590      2.08203435
Si             97.12077959     63.81824510      9.28581072      14     -1.58764873     -0.32829832      0.89007968      0.69874626     -0.30413766      0.29883190
Si            107.43420117     63.75822471      9.10515551      14     -0.34880326     -1.16696560      0.14088256      1.87353344     -0.03163331     -0.70211347
Si            125.25481592     60.43151112      9.09012291      14      0.56143709     -0.55731869     -0.59229846      1.31903742     -1.11362891     -0.04646001
Si             15.18828663     65.06608871      9.07227725      14     -0.50581947     -0.58920118      1.32987867      0.01008564     -1.93494928      2.47085409
Si             17.99033535     63.89833263      9.16583775      14     -0.33489837     -0.16655537      0.34848918      0.37152949     -0.20247634     -0.60538885
Si            102.09217102     62.62785594      9.19679178      14     -0.12862339     -0.90495186      0.07353398      0.76172957      0.48946851      0.84317653
Si            109.84415630     61.75686076      9.02952248      14     -0.34711551      0.31526731      0.72161300     -0.49102471      0.51034869     -0.08393327
Si            112.84336584     62.57039250      9.01363302      14      0.08716670     -0.09697819      0.16601071     -0.61087151      0.16545429      0.50121785
Si            122.62491208     62.02169054      9.09280084      14     -0.33714859      1.23173106      0.37126731     -0.85143865     -0.35397814      1.68983751
Si             38.35092093     62.93156521      9.32351315      14     -0.03584256     -0.43753277      0.40369488     -0.91145925      0.93495838      0.49995241
Si             57.65779287     64.68559073      9.40660623      14     -0.41526096     -1.27668603      0.21152666      2.44264506      0.67655453     -1.21196635
Si             62.75383149     64.12625063      9.16377559      14      0.21006907     -0.36644670     -0.06831057      0.28601421      0.64388745      0.51831347
Si            105.03250152     61.65570326      9.18096073      14      0.12424732      0.69581453     -1.33306684      0.43318613      0.83311742     -1.03703099
Si            117.70917723     62.53113872      9.05164168      14      0.48368416      0.10980600     -0.97039706     -0.36821010     -0.49861508      0.57577440
Si             30.53787972     64.74822955      9.42439177      14      0.76738667     -1.14844896     -0.60938739     -1.02575364     -0.93576035      1.17290751
Si             75.02129430     64.71477188      9.18790519      14     -0.97055997     -0.37815401     -1.04009692     -1.31827467      2.09347861     -0.26715033
Si             82.15042405     62.79176719      9.18414792      14      0.89757278     -0.22700065     -0.27193977      0.29495087     -0.15277804      0.83195933
Si            119.95560725     60.44041241      9.17536802      14      0.81118708     -0.13598445      0.60537384      1.19396979     -0.57381613      0.74658324
Si             10.98173852     63.28393644      9.14508827      14      0.30493323     -0.59063069     -0.79548695     -2.09289382      0.42562714     -0.95183103
Si             13.64866451     62.36150100      9.10881633      14      1.02804963     -0.29277732     -0.80038525     -0.65484939      1.19846412     -1.26163322
Si             28.55011061     62.42848829      9.42368177      14      1.62336027     -1.42168345     -1.61714533     -1.00423289      1.01494338     -0.15586629
Si             54.60417317     64.18253802      9.39736184      14      0.56467383     -0.98094074     -0.13871022      1.35948722     -0.98773226     -0.98188424
Si             73.42512656     62.20359108      9.14284199      14     -0.23490917      0.30581587     -1.47886125     -2.70942740      1.65418777     -1.19191947
Si             70.30717259     62.23853615      9.06139267      14      0.43467340     -0.24512796     -0.80972907     -0.76225163      0.98067271      0.91474517
Si              8.03422992     62.36450617      9.11905878      14     -0.00000000     -0.08155491     -0.00000000      1.07318809     -1.75552042      0.39136540
Si             25.44254314     62.95967078      9.31808917      14     -0.52356746     -1.76614051      0.73927220      0.67570560     -0.59885254      1.22567152
Si             46.66358921     63.19209399      9.27701158      14     -0.73015558      0.95127668      0.28872382     -0.46507515     -2.89526902      0.75421203
Si             65.44705985     62.64243917      9.12969204      14      0.23533856      0.43586678      0.26170983     -1.42997519      0.43299597     -0.64939806
Si             85.21261922     62.51371071      9.22301815      14      0.27743138      0.00618900     -0.37286351     -0.07643883      1.35091146     -1.13247627
Si            115.16598212     60.59586502      9.08374849      14      1.28982817     -0.27916398      1.80903904     -0.35606088      0.60562822     -0.39391070
Si             41.18569228     63.85086621      9.37660490      14     -0.03980633      0.21637517      0.98243643      1.09401239      0.24006190     -1.70564613
Si             43.76476946     62.16568148      9.45030743      14      0.47303103      0.14795290     -1.47867294     -0.64017426      0.64466810     -0.80965757
Si             15.41136062     59.87020571      9.18427859      14     -0.37287885     -1.22602422      1.32198120     -0.99232512      0.16431339     -0.71818953
Si             18.25469055     60.90345868      9.16419160      14      0.24873617      1.27937502     -0.34699559     -1.93279602     -0.53292481     -0.60053759
Si             20.89760971     59.51371456      9.20143147      14      0.48972694      0.77073076      0.46626140      1.52873953     -1.53927666      0.75506022
Si             23.79016643     60.37522970      9.26365842      14      0.74385737     -0.56360112     -0.50363020      1.87531705      0.59609789      1.61286730
Si             60.11198844     62.74806997      9.15272211      14      1.67402493     -0.43330259      0.17174803     -1.24064559      1.47214113      0.27592387
Si             87.24813318     60.31050670      9.30575595      14     -0.54616121     -0.42011635      0.36874507      1.36981328     -0.36731086     -0.28814022
Si            106.20472301     58.76057905      9.17559396      14      1.19709542     -0.02059879     -0.48409891      0.54234910     -0.48465669     -1.03645555
Si            109.32473893     58.68913571      9.09517389      14     -0.73010884      1.60981826     -0.70005072     -0.44541219     -1.09196489     -1.65830892
Si             51.17662342     59.81627584      9.33528250      14      1.07710563     -0.12349737     -0.81828637     -0.12902846      1.01391385     -0.70423415
Si             97.42128155     60.72955998      9.40394939      14      1.12035432      0.32092955     -0.34985458      0.01763596      0.92315734     -1.93598406
Si             53.91724125     61.20580370      9.30729293      14      0.15674404      0.65112105      0.14666943      0.12640201     -0.25392176     -0.79948259
Si             77.85203979     59.09469425      9.01892655      14     -0.63898728     -0.38171505      0.40415748     -2.72453108     -1.12965229     -1.53645719
Si            100.47464872     60.02724479      9.30894710      14      0.28551752     -0.67293817     -0.11989123     -1.34057028     -0.52271742     -0.07786171
Si              6.99771446     59.50522312      9.02154471      14      0.00000000      0.67046644      0.00000000      0.31270718     -0.37824813      0.10295417
Si             33.16909208     60.29687023      9.28874556      14     -1.70313176     -0.72279789     -1.15139348     -0.35011250      0.04040313      1.29379240
Si             48.24650406     60.58403061      9.29848595      14      0.11001198      0.70674594     -0.66722852     -0.76762643     -1.27834196     -0.78256712
Si             74.80734683     59.46320811      9.07591459      14     -0.36444189     -0.63143032      0.61354620      1.42138212      0.29667410      0.35326049
Si             80.60906624     60.20115429      9.11777042      14      0.60705970     -0.72908568     -0.69460937     -0.30771605      1.06732983     -1.53101797