8770
energy=-167869.77404760 cutoff=10.58354498 nneightol=1.20000000 pbc="T T T" Lattice="265.39576501       0.00000000       0.00000000       0.00000000      98.00293199       0.00000000       0.00000000       0.00000000      24.28372928" Properties=species:S:1:pos:R:3:Z:I:1:momenta:R:3:force:R:3
Si              5.00086227     11.28745711      5.53120599      14     -0.00000000     -0.26276555     -0.00000000      3.17150593      0.16000051      1.19026870
O               6.30231593     10.53134205      5.10405492       8     -0.00000000     -0.29951101     -0.00000000     -1.79247822     -0.11193992     -0.04386399
O               5.00723728     12.77236440      5.08112591       8     -0.00000000     -0.44817614     -0.00000000     -2.07647075      1.39805026      0.26291585
O               5.00000000     11.20894326      7.14186463       8     -0.00000000     -0.10168411     -0.00000000     -2.21437196     -0.15062826      0.18210182
Si              5.00086227     11.33298004      8.75252328      14     -0.00000000     -1.10845079     -0.00000000      4.76718942     -1.50866380     -0.88072451
O               6.30231593     10.47137377      9.17967435       8      0.00000000      0.26482142      0.00000000     -2.75017029      0.71917347     -0.52039298
O               5.00723728     12.81095413      9.20260336       8      0.00000000      0.50052175      0.00000000     -1.88681401      1.47605254     -0.17387082
Si             10.30384750      5.38584237      5.62684640      14      0.23034453     -0.07036409      0.88873182     -0.69716051     -0.75051171     -0.02119348
Si              7.66218606      6.79274386      5.52590560      14     -0.00000000     -1.17357857     -0.00000000      2.43867703      0.91187529      1.22249344
Si              7.66462340      9.85659303      5.53251478      14      0.00000000      0.94280105      0.00000000      1.23243510     -1.25817907      0.29731474
Si             10.29931778     11.32848548      5.59774647      14      0.47372622      0.26605980      0.21010221      0.43166644     -1.35942694      1.10335154
O               8.94355459      5.93323089      5.11009363       8      0.00000000      0.07697525      0.00000000     -1.21896814      0.20262465     -0.09871764
O              11.68588990      5.83146524      5.22012424       8      0.75613255     -1.45366207      0.79994639      1.13520152      0.53270751     -0.96664966
O               7.66808511      8.27610400      5.08243827       8     -0.00000000     -0.17908925     -0.00000000     -1.26995525     -0.87426424      0.35287252
O              11.60893007     10.59204528      5.08608135       8     -0.85184559     -0.22001965     -0.83390663      1.27222283     -1.03055902      0.90988212
O               9.02223119     10.44882861      5.10272869       8     -0.00000000     -0.03581479     -0.00000000      0.46714357      0.55708251      0.33062628
O              10.09412287     12.79334122      5.17297663       8      0.74477870      0.97292490      1.10707506      0.18273319      1.94798899     -0.48093135
O              10.18248111      4.95881999      7.13527248       8     -0.90324439     -1.18189196     -1.75426417     -0.39785243     -0.05489265      0.91620502
O               7.65940928      6.58179012      7.14186463       8      0.00000000      0.77050825      0.00000000     -1.59479577     -0.14040146     -0.21420443
O               7.66580477      9.69834628      7.14186463       8      0.00000000      0.02225537      0.00000000     -1.15536249     -0.24299216     -0.06451078
O              10.36216800     11.29083709      7.24874529       8     -0.81788891      0.24642499      0.21011653     -0.17583211     -0.37716368     -0.72389204
Si             10.27122726      5.29907180      8.69626810      14      0.86856192      1.04513679      0.38188107      1.41982248     -0.11836886     -0.70803700
Si              7.66218606      6.73993661      8.75782366      14     -0.00000000     -0.05719202     -0.00000000      1.75073593     -0.30381797     -1.88749354
Si              7.66462340      9.74109744      8.75121448      14      0.00000000      0.79276946      0.00000000      1.92635806      1.42109328      0.34681962
Si             10.43974151     11.29520037      8.88560753      14     -0.30408968     -1.41383354      0.17705833     -1.68006785     -0.49749302     -0.77646088
O               8.94355460      5.92408332      9.17363564       8      0.00000000      0.13346434      0.00000000     -1.01827393     -0.38809921      0.47111791
O              11.68098618      5.79718134      9.07423953       8      0.18149280      0.53109222     -0.59885589     -1.01468264     -0.55196850      0.86167127
O               7.66808511      8.18821759      9.20129099       8     -0.00000000     -0.68516558     -0.00000000     -1.24528037      0.79405801      0.23069159
O              11.67735080     10.39056939      9.29184929       8     -0.33822600     -0.31287290      0.27021994      0.01243116      0.55700544     -0.06001541
O               9.02223119     10.41815925      9.18100058       8     -0.00000000     -1.06239019     -0.00000000      0.40796799      0.58853290     -0.02666805
O              10.39537902     12.83761046      9.29165256       8      0.39239518      0.84163987      1.31691922     -0.03711007     -1.70352621      0.51390593
Si             15.73552257      5.66313540      5.72020185      14      1.21851894      0.08527334      0.76248054      0.21473709     -0.37357080      0.22122577
Si             12.95114192      6.76667521      5.62036135      14      0.83947812     -1.18354098     -0.36065158      0.41875685     -0.40488397     -1.38707422
Si             12.95631639      9.84866295      5.60724122      14     -0.88494260     -1.69985466     -0.47683365     -1.72966778     -1.06004333     -0.08672389
Si             15.62353202     11.30913635      5.55728539      14     -0.10386124     -0.79097944     -0.82397121      0.65755396      0.49332664      0.28479009
O              14.36933122      6.12850152      5.25834532       8     -0.86094553     -1.23913197      0.66892093     -1.24439147     -0.31808836     -0.81834916
O              17.05066314      6.21888982      5.17826399       8     -0.04586156      0.91711073      0.53169928      0.81567195      0.06463677      0.12590028
O              12.98701994      8.23556042      5.19209763       8     -0.15379317     -0.28669782      0.70093268     -0.74688392      2.18614620     -0.24199488
O              16.94402605     10.49782164      5.13186702       8     -0.52223066      1.45674065     -0.03847806     -0.32830058      0.07933926     -0.02366263
O              14.29265642     10.51023203      5.22590005       8     -0.51307754      0.56797397      0.99388660      0.73015759      0.38628937     -1.22864802
O              15.64780300     12.85209178      5.14787133       8     -0.29782158      0.55177365     -0.72070222     -0.15466280     -0.99762753      0.26296272
O              15.65532839      5.23824531      7.24050255       8      0.86958407     -0.03166175      0.38940435      0.06296252     -0.18056127     -0.34420258
O              12.83801314      6.59931314      7.16772446       8      0.85524402      0.01598996      0.60979030      0.34647185      0.22292319      2.28981134
O              12.96264656      9.65586422      7.22929824       8     -0.84593653     -0.42321673      0.03353618     -0.14121677      0.13875081     -1.07434831
O              15.53477810     11.15835552      7.16552611       8      0.73087697      0.04171585     -0.75002376      0.41152640      0.61308310      0.24556518
Si             15.66437550      5.58557634      8.78300991      14      2.06801926      0.88168450      0.53267237      0.53361032     -0.23758712      0.12598605
Si             12.94261406      6.72401253      8.78137729      14     -1.03830265      0.11645529      1.30502782      0.16433978      2.29692055      0.52693590
Si             13.08048836      9.82371991      8.80047465      14     -1.02527197     -1.67289629      0.87392595      0.40617642     -1.44799852      2.00824122
Si             15.70621937     11.30761950      8.76584914      14     -0.09341655      0.95576161      1.51927832     -0.61873724      0.12507121     -0.37451339
O              14.29546549      6.06071605      9.29279317       8      0.25767626     -0.28098781     -0.42707501      0.28645606     -0.80736703     -0.15616325
O              17.14332448      5.87494500      9.13811610       8      0.23774063     -0.11815058      0.39942252     -1.15841983     -0.66791046      0.58541010
O              13.02451182      8.21498144      9.32754487       8     -0.82295847     -1.08609889      0.40391064     -0.40898612     -0.14241602     -1.50897780
O              17.02771953     10.56542567      9.12971766       8      0.30221467     -0.69003979     -0.06462806      1.49016277     -0.47115582      0.52149405
O              14.49121123     10.41560935      9.29693093       8     -0.41832013      1.14327893      0.23739525     -1.65748994     -0.31155334     -0.48617141
O              15.73160452     12.80925465      9.21563413       8      0.57484851     -0.14312994     -0.74609243     -0.14646560      1.36649073     -0.06750146
Si             20.99798038      5.46906592      5.60686577      14      0.02928305     -0.84318272     -0.36337283      1.77515220     -0.92836631      1.27278195
Si             18.42276515      6.96858300      5.56591942      14     -0.14081138      0.13036507      0.60134392      0.29705903      0.10073405      0.26376769
Si             18.39261448      9.99901697      5.51598175      14     -1.07074672      0.73005162      0.56461507      0.12378448     -0.74898571      0.27787171
Si             21.08783133     11.44088546      5.54438065      14      1.15263918      1.23464833      0.68675616     -0.63061114     -1.23823722      0.86514572
O              19.64338018      5.99304498      5.19709071       8      0.87448943      1.81087859      0.51459107     -0.93911861      0.07127314     -1.11408337
O              22.42894261      5.88234003      5.17106182       8      0.15397849      0.29048278     -0.07260209     -1.36410892     -0.78072017     -0.28034177
O              18.59234735      8.42307433      5.04163603       8     -1.24076768      1.10142249      0.13815448     -0.47785673      0.44760743      0.66849477
O              22.35081787     10.54454599      5.16875774       8      0.81948385     -0.14618416     -0.81682026     -0.43626071      0.22604813     -0.23222657
O              19.67894241     10.77121538      5.09525450       8      0.02030668     -0.10503045      0.16007104      1.16121470      0.79270744     -0.46308370
O              21.36752012     12.90421272      5.10724150       8     -0.68810557     -0.16689895      0.15604430     -0.47937977      0.98724312     -0.21248392
O              21.01279936      4.94467450      7.15159953       8      0.12415156      0.16317017      0.48869298     -0.18846877      0.95288780     -0.28660333
O              18.56747576      6.81238783      7.17239744       8      1.36070561      0.62820232      0.28409095     -0.73858566     -0.30941942      0.55433776
O              18.47535353      9.93659452      7.13096790       8      0.84691006     -0.01310600     -0.63101965     -0.33447082     -0.62561004      0.38082435
O              21.00465856     11.33137963      7.17853453       8      0.62080059      0.12160337      0.67591658     -0.21747035      0.12761028     -0.65353028
Si             21.03138036      5.43111960      8.67335992      14      2.35842719      0.65935715     -1.69516642     -0.73298247     -0.33409419      0.06990483
Si             18.36684696      6.79214731      8.82496344      14      1.04906481      0.34701953      0.79410928      1.63504039      0.67649921     -1.63349642
Si             18.40476913      9.87881258      8.75931890      14      0.23584614      0.43768961     -0.89718922     -0.40456985     -0.35017510     -0.58814698
Si             20.99466182     11.30302642      8.77621787      14     -0.59989151      1.38101105      1.17196410      1.03041687      1.87733618      0.35070874
O              19.69011212      5.99596679      9.26183027       8     -0.06657717      1.06663149     -0.63740360      0.97426451     -0.36967952     -0.44970325
O              22.46147486      5.73053631      9.19577263       8      0.78296226     -0.44454221     -0.11759233     -1.05602492     -0.24932655     -0.11008262
O              18.13868323      8.29210487      9.07840465       8     -1.16148050      0.24780847      0.03689248      0.28464386      1.18358741      0.68545074
O              22.35399604     10.58830967      9.16238451       8     -0.76734080     -1.00272152      0.14201383      1.65944060     -1.24731713      0.50669730
O              19.83621739     10.35142453      9.26336735       8      1.06971912     -0.33426007     -0.32649050     -1.38247013     -0.62901682      0.07571926
O              20.91427954     12.80072557      9.38308263       8      0.13340601      0.55492682     -0.43285922      0.12786373     -0.57518629     -0.74350742
Si             26.37828594      5.53995394      5.61889655      14      0.78676924     -0.18108943     -0.27937099     -2.54557753      0.45144339     -1.88438481
Si             23.65498392      6.80560808      5.53336413      14     -0.06596327     -1.43973899     -0.34513019     -0.00421009      2.16241076     -0.47650297
Si             23.62907054      9.78077757      5.64480352      14     -0.59307867     -2.06833510      0.18798184      0.88740398      0.78640497     -1.38502688
Si             26.43776080     11.08123849      5.57049127      14     -0.08059774      0.17424104     -0.58907253     -1.46125133      2.27018437     -1.05881839
O              24.98452726      6.08760046      5.06890971       8     -0.08940336      0.73842729      0.36944346      2.51395743     -1.08108777      0.77956342
O              27.78287037      5.89106658      5.14927710       8     -0.72284770      0.03097710     -1.18778801      0.84090128      0.30981253     -0.49068569
O              23.48547823      8.31748477      5.03190925       8      1.08269829     -1.09021681      1.69889184      0.15736982     -2.82099702      0.75331603
O              27.65653377     10.29141640      5.04427390       8     -0.31886223     -1.85615898      0.86553301      3.66746232     -1.76222404      0.23493846
O              25.10860802     10.24480489      5.24866497       8     -0.67112430     -0.25524863      1.30991603     -0.43119873      0.40521639      0.05145653
O              26.54785898     12.66184350      5.21349194       8     -0.07148747      0.46839354     -0.54946559     -0.54043079     -0.03361852     -0.11999684
O              26.36953757      5.00385848      7.07348823       8     -1.69521446     -0.59023615      0.64481582      0.05148858     -0.31704875      1.48512298
O              23.67415200      6.69903429      7.14000999       8     -0.46692427      1.20221250     -0.10568934      0.00891214      0.03426948      1.08773274
O              23.55788108      9.61319983      7.21180617       8      0.07347093     -0.44409849     -0.06761809      0.10585362     -0.74829149      0.17153287
O              26.52101381     11.07614793      7.13012384       8     -0.08385183      1.45288510      0.69426839      0.17063699     -0.35797630      1.69336236
Si             26.37550617      5.27827842      8.65390202      14     -0.38023885      1.00017184      0.49588301     -0.86156576     -0.48967166     -1.19037595
Si             23.67072258      6.67056636      8.79397813      14      0.18176451     -0.22690534     -0.31036141      1.12095131     -0.73927269     -1.36863953
Si             23.64933483      9.69808845      8.80072040      14      0.59801231     -1.49188544     -1.15636884     -0.45074249      1.29185430      0.60718620
Si             26.43746857     11.04693616      8.73119052      14      0.19662828     -0.05172761      0.41369411      0.80500022      0.82101057      0.29202757
O              24.97121448      5.72400555      9.04156897       8      0.71837873     -0.56780038     -0.22069555     -1.17128617      0.82754567      0.74071519
O              27.69203926      5.80244269      9.19354428       8     -0.29317770      0.28363960     -0.45791844      1.02095832      0.45575678      0.34865336
O              23.52938305      8.12757886      9.26876934       8     -0.34654798      0.91146538     -0.71194664      0.18217242      1.20980145      0.23418448
O              27.65052546     10.07866584      9.18690196       8     -1.30258328     -0.36996292      0.46329330      0.76881738      0.42838739     -0.53471179
O              25.13103832     10.23630144      9.06472990       8      1.21272826     -1.03260897     -0.97301609     -1.44712182     -0.70772348      0.59290347
O              26.44674851     12.58053397      9.16879689       8     -0.79207878      0.18284375      0.73881405     -0.04067065     -0.08603753      0.38950132
Si             31.81321029      5.38824444      5.60316760      14     -1.28338571     -0.80229255     -0.10743786     -0.84604866     -0.08112942      0.51743744
Si             29.10420132      6.71367757      5.55856344      14     -0.24692503      0.23716416     -0.70235365     -0.80236137      0.24602614      0.25727225
Si             29.12478630      9.70126409      5.54801262      14     -0.14459472     -0.70488497     -1.16351779     -0.25476152      2.19541880     -2.15050116
Si             31.73732810     11.30845145      5.65195737      14     -0.55520643     -0.34299702     -0.97944908     -0.64407574     -0.45998162     -0.27420290
O              30.36691757      5.83345989      5.24206768       8     -0.07593116     -0.00875991     -1.22358616      1.20635093     -0.68506081     -0.32674241
O              33.15106482      5.88632264      5.04642988       8      0.22121160      0.43076874     -0.31322936      0.66222714      0.65351186     -0.17442079
O              29.14989270      8.17698618      5.03921931       8     -1.30927210      0.67797857      0.65431869      0.30454209     -0.10716640      0.02513251
O              33.11155316     10.51025160      5.32160661       8     -0.42152498     -1.17753317     -0.10682398     -0.56569611      0.14908140      0.62785632
O              30.47817377     10.49842405      5.02557860       8     -0.65947625      0.14717271     -0.68781667     -1.40137634     -1.08928844      1.55967690
O              31.67370891     12.82828986      5.14527847       8     -0.39018220     -0.08030116      0.33573762      0.49722316     -2.52452102      0.00232867
O              31.87087704      4.99748088      7.14652841       8      0.36234699     -0.11339619     -0.10167903     -0.05269013     -0.21530818     -0.41913651
O              29.03316447      6.70352418      7.17429435       8     -0.59691031     -0.00134077      0.09323716     -0.61287320     -0.00405909      0.33392736
O              29.07411821      9.51410105      7.14167251       8      0.46850831     -0.00525630      1.36793097      0.51809458     -0.12648008     -0.44624304
O              31.50980397     11.18036053      7.26571847       8     -0.82861248     -1.11941174     -0.37977717      1.36815899     -0.00304740     -1.00509143
Si             31.70062771      5.34750704      8.67459336      14     -1.12827398     -1.40136929      0.96406864     -0.14326319      0.29857110      0.61359858
Si             28.99006486      6.65675331      8.81003968      14      0.41461952      0.37537631      0.75883279      0.78099334      0.73562124     -0.44216647
Si             29.13459535      9.63320779      8.71967249      14      0.66609201      1.92111266     -0.04104973     -0.23036510      0.83970559      2.87896712
Si             31.75000106     11.18238931      8.88648395      14      1.69200545     -0.54698646      0.40196713     -0.65419366      1.76490024     -0.84971455
O              30.22723396      5.69562859      9.03704286       8     -1.20522279     -0.51838158     -0.07048704      1.34922472     -0.92205483      0.33932803
O              32.99756921      5.86885730      9.34549546       8     -1.43680479     -0.83384155      0.11816766      0.56975098      0.03435627     -0.45300347
O              29.25079139      8.10082563      9.36237218       8      0.84998643     -0.06681678      0.56803930     -0.24759034      0.30627447     -1.30682867
O              33.04173092     10.37200320      9.27199836       8     -0.24442493     -0.18491472      0.09494793      1.50129635     -0.75512985     -0.63523927
O              30.41202733     10.48614604      9.25946713       8      1.01431765      1.02876891      0.22043232     -2.63340305     -2.26588238      0.10221551
O              31.71808507     12.70660076      9.32522870       8     -0.73924454      1.49807580      0.06215518      0.43764762     -2.04413419      0.48770446
Si             37.11931819      5.40431985      5.62501968      14      0.43036284     -0.37357222      0.73524712     -0.61749156     -0.58154318      0.54650756
Si             34.40009063      6.79073027      5.60745648      14     -0.15334909      0.17441107      1.05231985     -0.73063289     -1.80868270      0.89088500
Si             34.49052792      9.83755855      5.70978769      14      0.96055269     -1.05347459      0.95892890      0.34200374      0.03753064     -1.69620471
Si             37.12935989     11.31193118      5.72269141      14     -1.15769500      0.31951411     -0.05483873     -0.06433786      0.02985347     -1.45472372
O              35.64527914      5.76076655      5.37973743       8      0.27108060     -0.42006384      0.07323691     -0.63447458      0.95536191     -0.01153592
O              38.34942623      6.07361402      5.00830669       8      0.05009587      0.50152216      0.09934573      0.34953785      0.17359916     -0.59187052
O              34.56010101      8.26089997      5.17714110       8      0.30484260     -0.78297537      0.23721722      0.05957465      0.97891697      0.17155840
O              38.37740013     10.42831656      5.25333021       8     -0.64642138     -0.60463976     -0.26772185      0.88553879     -0.49759782     -0.04781710
O              35.75045477     10.66424945      5.19236758       8      0.01603044      0.88511026     -1.22178585     -0.10039469     -0.57067497      0.52767813
O              37.32484914     12.81053564      5.34683872       8      0.51000643      0.76255895     -0.18148724     -0.66246049      2.53328994     -0.18581805
O              37.29042168      4.94092892      7.13961901       8     -0.30277789      0.88355873     -0.14875970      0.27423198      0.20558173      0.16166126
O              34.06582650      6.65730012      7.23360910       8     -0.76394135     -0.55348450      0.34109517      0.64624146      0.55532918     -1.35672813
O              34.61902932      9.56996387      7.26960391       8     -0.31251406     -0.51790404     -0.46462720     -0.53239682     -0.10761486      1.40937086
O              37.08496547     11.24603129      7.28573909       8      0.15846600      0.18574753      0.45094237     -0.37990700     -0.39818146      1.03326666
Si             37.12098985      5.40737206      8.65303900      14      1.37182518     -1.93876898      0.94041425     -0.17406426     -0.08879412      0.27667196
Si             34.35131143      6.67624583      8.83193309      14      1.05739591     -0.45083646     -1.12029414     -2.23997121     -1.67531719     -0.58423572
Si             34.46775513      9.75267890      8.88190580      14      0.51667009     -0.21767509      0.42387073     -0.04064651     -1.40464886      0.78149198
Si             37.12925066     11.25158552      8.89939362      14     -0.13827899     -0.43735118      1.00850731     -0.11480445      2.69643822     -0.49398279
O              35.62860772      5.76269010      8.90861754       8     -0.01265082     -0.20533202      0.01494305      1.47821001     -0.57278422      0.35024341
O              38.40072371      6.03036606      9.30239979       8      0.76583672     -0.72766621      0.20656649     -1.07396139     -0.30683342     -0.58702174
O              34.43054964      8.07567128      9.39873021       8      0.39983064      0.20067088     -0.89072142      0.53077903      4.26020078     -0.30892566
O              38.39603240     10.36584931      9.13638775       8     -0.43491312      0.98590304      0.45424988      1.72002771     -0.84097194      0.39813931
O              35.81553673     10.48069168      9.31388798       8      1.50655601     -0.56209372     -0.15945437     -1.27987047     -0.82838728      0.44307055
O              37.18513955     12.80639302      9.31744582       8     -0.70442589      0.95740169      0.22298390      0.05224443      0.39973070     -0.35376981
Si             42.36121928      5.78280868      5.65290699      14     -0.12450553     -1.14092796     -1.55638806      0.31527566     -1.26658787      1.89157640
Si             39.67518564      6.83764746      5.45594994      14      0.20167516     -0.51393836     -0.10504013     -0.04728947      1.28698217      1.02709904
Si             39.88189466      9.95680469      5.54534280      14     -0.98377966      1.63177142      0.01913753     -0.53691652     -0.51855151     -1.54407038
Si             42.51204389     11.43688825      5.51924080      14     -0.32355998      0.31795269      0.58185512      0.73058428      0.42602245      1.65608627
O              40.95203356      5.95678478      5.09522931       8      0.79536924     -1.13840275     -1.06453757     -0.32043339     -0.36985580     -0.00012094
O              43.70565582      6.27424161      5.14688707       8      0.22761588      0.39351958      0.22930312      1.64169517      0.66655041      0.16014641
O              39.99931246      8.33897644      5.14218148       8      0.88709095     -0.14326216      0.32713338     -0.49863840      0.00584832     -0.01192964
O              43.91139158     10.62428761      5.34167602       8     -0.92286752     -0.13684468      0.37003729     -1.65452541      0.42763620     -1.08178734
O              41.16506523     10.72713340      4.99925211       8     -0.75423704     -0.04182188     -0.19417409      0.15388428     -0.33205285      0.28812893
O              42.53412955     12.99437766      5.23669437       8      0.27802266      1.28309224      0.32344859      0.27078734     -0.48274186     -0.87343263
O              42.45117562      5.39138280      7.23952979       8     -0.25290955     -0.23456057     -1.40193009     -0.09288621      0.42492732     -1.51678822
O              39.50564064      6.64701580      7.11281472       8     -0.49653013     -0.29071917     -1.19149818      0.22906015      0.34618010     -0.81211344
O              40.00718012      9.76520614      7.09673816       8      0.18746018      1.51275477     -0.25297172     -0.28025961      0.08583144      1.83855564
O              42.52026765     11.35481390      7.16390443       8      0.29023271      0.76213463     -0.42915593     -0.61401542      0.03318040      0.16613693
Si             42.39154816      5.68337438      8.80142537      14     -0.39725814     -0.43271580      0.64685944      1.64780839     -0.03017702     -0.42316224
Si             39.64906824      6.83608243      8.70585435      14      0.49524063      1.02146564     -1.21723086      0.91016601      0.23205117      0.41708087
Si             39.85761832      9.87268027      8.71123377      14      1.52069054      1.12632509      0.82588997      0.20599247      0.92703263      0.03912821
Si             42.52177762     11.36141336      8.80190002      14     -0.07115370     -0.01455516     -1.42406999      0.30478551      0.09113689     -1.49486926
O              40.96311567      6.02678757      9.17628793       8      0.51301094      0.52831717     -0.31994961     -1.14604718     -0.13140633      0.33409687
O              43.77076813      6.12328181      9.36658890       8      0.86590466     -0.28853008     -0.46231222      0.22650262     -0.01819389     -0.48533453
O              39.93742479      8.31687332      9.09675575       8     -0.95220809     -0.47892603      0.01040892     -0.34223620     -0.38789430      0.05758690
O              43.79101913     10.47793572      9.13481945       8     -0.43904300     -0.29305019     -0.72348340     -0.01659301     -0.29978116      0.67664436
O              41.16145004     10.66339917      9.17274060       8      0.47680047      1.15458520     -0.05707407     -1.23900933     -0.81088039      0.51410115
O              42.66660029     12.82809720      9.33651229       8      0.52990274      0.30546102      0.99515524     -0.12607012      1.06963903     -0.51949692
Si             47.70779226      5.51009339      5.58433715      14      0.59192334      1.74660639     -0.05111394     -0.93912908      0.09906721      0.11163838
Si             45.11441548      6.91287969      5.69216837      14     -1.75563319      1.28976270     -0.19375225     -0.63179625      0.95519478     -1.12397185
Si             45.26277088      9.98800404      5.74699250      14     -1.04471590     -1.29038892     -0.81053133      2.25074947     -0.19258686     -0.74098305
Si             47.92373324     11.61850179      5.69204017      14      0.61967081     -0.45110203      0.95518110      0.56552575     -1.58033614     -0.66082485
O              46.24544221      5.88642374      5.18849333       8     -0.52333619      0.22610659     -0.50352079      0.87704981     -0.15454854      0.22860235
O              49.08872849      6.08194198      5.26076204       8     -0.62153905      0.95698437      0.55517454     -0.37664514     -0.26641539     -1.30956716
O              45.36016014      8.40751764      5.28497573       8      0.15504173      0.61581032      0.00889229     -0.20693857     -0.05689251     -0.30847297