8770
energy=-167773.10528366 cutoff=10.58354498 nneightol=1.20000000 pbc="T T T" Lattice="265.39576501       0.00000000       0.00000000       0.00000000      98.00293199       0.00000000       0.00000000       0.00000000      24.28372928" Properties=species:S:1:pos:R:3:Z:I:1:momenta:R:3:force:R:3
Si              5.00086227     11.50879223      5.53120599      14     -0.00000000     -1.08206844     -0.00000000      3.60810106     -0.75429637      1.03607072
O               6.30231593     10.70395118      5.10405492       8     -0.00000000     -0.00861271     -0.00000000     -3.17593029      1.15170503     -0.04975526
O               5.00723728     12.99454566      5.08112591       8     -0.00000000     -1.74891963     -0.00000000     -1.82441855      1.71039039      0.81793683
O               5.00000000     11.32371351      7.14186463       8      0.00000000      0.30926524      0.00000000     -2.17259451      0.54528218      0.02972150
Si              5.00086227     11.49676274      8.75252328      14      0.00000000      0.11275257      0.00000000      3.73867121      0.18615082     -0.72308036
O               6.30231593     10.70044309      9.17967435       8     -0.00000000     -0.54746753     -0.00000000     -2.66666185      0.78462530     -0.11684846
O               5.00723728     13.01792244      9.20260336       8     -0.00000000     -1.06300594     -0.00000000     -1.90295025     -0.95497248     -0.75615927
Si             10.22353427      5.47062066      5.59749773      14      0.11821873      0.32322490      0.20949440     -0.89225164     -0.38735297      0.68056484
Si              7.66218606      7.06318822      5.52590560      14     -0.00000000     -0.19118094     -0.00000000      2.67315122     -0.78910125      2.10948207
Si              7.66462340     10.09735585      5.53251478      14      0.00000000      0.66429666      0.00000000      2.69073675     -1.96088806      0.77105838
Si             10.37803208     11.47412655      5.48694510      14     -0.98425296     -1.16470291     -0.34328479      0.92205994      0.72758859     -0.53856883
O               8.94355459      6.18633137      5.11009363       8     -0.00000000     -0.76489396     -0.00000000     -1.70472901      0.35560977     -0.49652829
O              11.63881353      5.83879070      5.21999514       8     -0.20405736      0.19701921      0.43524360      1.12581224      0.51386920     -0.31728362
O               7.66808511      8.51424853      5.08243827       8      0.00000000      0.46637055      0.00000000     -1.15360807      0.53061231     -0.42100442
O              11.66382249     10.55996516      5.22940140       8     -0.20079901     -0.32416434     -0.26805866     -0.59559439      0.80451643     -0.61057632
O               9.02223119     10.72843155      5.10272869       8      0.00000000      0.17253563      0.00000000     -1.03736189     -0.18137512     -0.65242710
O              10.30016697     13.03925696      5.12534754       8     -0.45963492     -0.22099652     -0.06286651     -0.02692962     -1.99128174     -0.41022802
O               9.92829252      5.11545409      7.12757789       8     -1.23601644     -1.46012490     -0.18800885      1.07772173     -0.34948682      0.10442607
O               7.65940928      6.80505652      7.14186463       8      0.00000000      0.88847214      0.00000000     -1.71612451      0.04404626     -0.42203506
O               7.66580477      9.81447431      7.14186463       8     -0.00000000     -1.19166074     -0.00000000     -1.14079476      0.95816804     -0.17456000
O              10.21625487     11.45059474      7.06287701       8     -0.26042414     -0.38929260     -0.60443508      0.08258234      0.08544577      1.90201214
Si             10.29932863      5.37305219      8.64493573      14      0.62292789      0.30138534     -0.12358404     -0.85949766      2.63996262      1.51367188
Si              7.66218606      6.98799152      8.75782366      14      0.00000000      2.06994669      0.00000000      3.06189692     -0.22790487     -1.53656123
Si              7.66462340     10.04257234      8.75121448      14     -0.00000000     -0.13515383     -0.00000000      2.50557251     -1.51554801     -0.12555072
Si             10.34202177     11.52885958      8.66359166      14     -0.01551132      1.00528983      0.29695085      0.15748571     -0.36293233      1.20076672
O               8.94355460      6.13274442      9.17363564       8      0.00000000      0.31878865      0.00000000      0.43447046     -1.13139975     -0.47266167
O              11.65217294      5.95743116      9.20337114       8     -0.15575583     -1.58384119     -0.25507734     -1.43059418     -0.91341633     -1.55036919
O               7.66808511      8.44910507      9.20129099       8     -0.00000000     -0.60343591     -0.00000000     -1.29006337      0.71084571      0.09799148
O              11.65506602     10.65527961      9.11577586       8      0.08746284     -0.31358831     -0.62352672     -2.29339312      1.54235812     -0.24720212
O               9.02223119     10.69323118      9.18100058       8      0.00000000      0.20502045      0.00000000     -0.18764291      0.39054849     -0.45383445
O              10.20831157     13.05557590      9.14127744       8      0.12124988     -1.40961358      0.92032615      0.43325552     -1.35540248     -0.45045150
Si             15.56374600      5.48620540      5.71475884      14     -0.38752206      1.11720718     -0.78466310     -0.26424614      0.09304954      0.33894351
Si             12.90611434      6.80690490      5.56297667      14     -2.74750386     -1.02804655     -1.37593758      0.49497493      0.21518190     -1.67327758
Si             13.05386727      9.88231865      5.59725653      14      1.98726973      0.25203292      1.76115354     -0.30401958      0.22320946     -2.27038186
Si             15.65083670     11.54550118      5.55968220      14      0.36263395      0.10543299     -0.56701017     -0.11936876     -2.42746043      1.57257554
O              14.18762878      5.90122996      5.13210388       8      1.16995968      1.19466839     -0.10087352      0.23283821      0.07800621      0.14006486
O              16.96945151      6.02227786      5.40408894       8      0.44727685     -0.38604668      0.57537021      0.53223051      0.02458487     -0.57243406
O              12.83657930      8.31795560      5.17315643       8     -0.27993838      0.64420437      0.86676638      0.34337276     -0.59223362     -0.84313036
O              17.01639326     10.81748482      5.06381901       8      0.66945908     -0.51623765      0.01772721     -0.75466914      0.76528529      0.48049608
O              14.38667583     10.61674724      5.15556348       8      0.74118042      0.34187579     -0.69442824     -0.24534279     -0.33712663      0.00995522
O              15.50016885     13.01686536      5.13104697       8     -0.71094921      1.32842464     -0.29524069     -0.07646864      1.82020357      0.12369517
O              15.54581566      5.09207738      7.26431641       8      0.07621440     -0.25687733     -1.19829507      0.14031023     -0.41481588     -1.44554204
O              12.97365308      6.73224459      7.11977207       8      0.51563605      0.92020900     -0.18639477     -0.38661926     -0.13356276      3.04154656
O              12.95840562      9.65234984      7.12600009       8      1.01634672      1.17128569     -0.97505973      0.08934633     -0.11516262      2.56712839
O              15.57380689     11.38724065      7.21327948       8     -0.20038806     -0.09917408     -0.13977342      0.48771943      0.76461030     -1.07257107
Si             15.69918462      5.48563337      8.76698495      14     -0.28703240      1.72250196     -1.06032147     -3.84986382      0.39005473      0.75778879
Si             12.93655941      6.87124166      8.76636468      14      0.13423185     -0.12433692      0.79032001      0.94352014     -2.37958117     -0.34437547
Si             12.92729646      9.87918983      8.71896237      14      0.39106808      2.14508546      0.64640400      2.11683798     -0.99746661      0.52960787
Si             15.56054196     11.49963977      8.85973365      14     -1.30643340     -0.00861744     -1.00928176      1.73059076     -0.61893715     -1.40811571
O              14.23972506      5.96246515      9.18069331       8     -0.43920170     -0.14270119      0.93197255      0.67147048      0.20154951     -0.26520535
O              17.03309318      5.99818659      9.24243769       8      0.79242013     -0.54285543      0.97130237      2.07289836      1.16557940     -0.18788519
O              12.88715435      8.30806970      9.27527845       8     -0.25519848      0.41466104      0.75272293     -0.20969492      1.93796325     -0.32597659
O              16.91785849     10.68596416      9.27015599       8     -0.07729860     -0.92111988     -0.16767028     -0.76386093      0.19157997      0.03022232
O              14.35023216     10.49810187      9.09889505       8     -0.42311551      0.69511004      0.78200320     -1.01596376      0.16714615      0.74561751
O              15.61023566     13.06448284      9.16890656       8     -0.46851789     -0.01846250      0.05411155     -0.74505915     -0.92754339      0.33001081
Si             20.90012180      5.64079654      5.67322479      14     -0.11628403      0.70996751     -0.22505526      0.88000296      0.22427637      1.33302999
Si             18.27520858      6.95547322      5.58328388      14      1.24880360     -0.89701531     -2.60399453     -0.72579484      0.40324612      0.48186877
Si             18.23940583      9.99765181      5.59809422      14      1.09567501     -0.02712942     -1.68608267     -1.71056810     -1.74741459      0.63330576
Si             20.91115928     11.29982532      5.62419094      14     -0.53938818     -0.17160356     -0.54698870      1.29696359      3.73151514     -0.69697858
O              19.61345127      6.21939895      5.06537432       8      1.26911361      0.93556497     -1.10854752     -0.50086476     -0.05547449     -0.15398011
O              22.36287358      6.08795723      5.45809651       8     -0.51132942      0.81911089     -0.47571035     -0.16585121      0.18851721     -0.86431563
O              17.98620694      8.42194497      5.10811637       8     -1.50845857     -0.08145982      1.49108305      0.63383387     -0.15314011      0.85968762
O              22.23500590     10.62588909      5.08542707       8     -0.06803221      0.87378411      0.57675719      1.33264345     -0.81487802      0.36709035
O              19.70874914     10.35156163      5.26895798       8      0.34321700     -0.31469798      1.09173142      0.46408897      0.23556616     -0.66374297
O              20.99780766     12.92655087      5.27621670       8      0.48018945      0.53553651      0.66347175     -0.57019268     -2.95480053     -0.46470037
O              20.81258184      5.32047230      7.24510460       8      0.93848318     -0.05723193     -0.48174167      0.08520388     -0.35026626     -0.24469304
O              18.48053864      6.77844703      7.22318663       8      1.23019185      0.21443935      0.25616357     -0.33505626      0.44735609     -2.34814565
O              18.13808955      9.83602231      7.22134283       8      0.22986311     -0.06886066     -1.07399368      0.45344537     -0.28863744     -0.54009923
O              20.93403347     11.36952996      7.21171715       8     -0.43488355     -0.08233146     -0.75097165     -0.10944012     -0.23325211      0.13232204
Si             20.93115874      5.65894911      8.80929574      14     -0.83255424      0.00116738     -0.11035103      1.81127058      0.23822244     -0.99272882
Si             18.31371491      6.92749903      8.76904944      14     -0.15977312      0.27834791     -0.75096376     -0.44362308     -0.62233337      2.19916716
Si             18.27960162      9.98086172      8.83084785      14      0.68104687     -1.02346860      0.10917588     -2.11807700     -0.14616652     -0.03602747
Si             20.88186584     11.53175281      8.78964568      14     -0.01986910      0.04735265      0.80534465      1.83409752      1.20242539      1.96474416
O              19.55780439      6.05656976      9.31793575       8     -1.18861997      0.18340566     -1.49353625     -0.81049158      0.12991949      0.74491077
O              22.32534838      6.25067641      9.18084531       8      0.66431032      0.56912809     -0.72111150      0.38477588     -0.22473430     -0.95351716
O              18.34920843      8.38812935      9.28139218       8      0.45568926      0.67005905      0.35226111     -0.03439901      1.38833347     -0.32688639
O              22.16595001     10.59820404      9.24791743       8      0.09953879     -0.38210791      0.96431300     -0.71542332      0.29384932     -0.48342985
O              19.46461722     10.91368855      9.19458771       8     -0.04967765     -0.73753300     -1.25727072      1.29829212      0.04113462      0.27929923
O              21.16207333     13.05283748      9.34044390       8     -0.57806979     -0.64916066      0.06961706     -0.56215013     -1.17858428     -1.39944022
Si             26.26018422      5.50544906      5.76836125      14      0.45264610     -0.76913020      0.55156988     -0.44065444      0.22868863      0.50285718
Si             23.68136139      6.99185566      5.54307575      14      0.57509578      0.18013760      1.40375141      1.60661838     -0.87614376     -0.56197372
Si             23.64572683     10.02846750      5.60117698      14     -1.25690843      0.25863708     -0.70044827     -0.30196058      0.17063708     -2.65306091
Si             26.34866684     11.44411322      5.57913572      14      0.51333805      0.88066321     -0.71967979      0.39161988      1.87076741      1.85500130
O              24.96328486      5.99720335      5.03744621       8      0.04057067      0.35470734      0.49924559     -0.17903305      0.47341962      1.32788194
O              27.69159946      5.90873084      5.28638435       8     -0.13340024     -0.15787650      0.72980572     -0.70104849     -0.21584243      0.16713877
O              23.71341081      8.46437609      4.99788501       8     -0.51341245      0.94500731      0.36958240     -0.16534935     -0.25054027      1.42309382
O              27.47881710     10.44138303      5.11968206       8     -0.94103193     -0.45586101      1.35837815     -0.10053534      0.19127377     -0.68742918
O              25.00889640     10.76115491      5.20475058       8      0.80766953      0.10726442      0.61006496     -2.35321404     -1.08215316     -0.19627589
O              26.41347601     12.99032540      5.20817181       8     -0.30998899     -0.26308958      1.17316753      0.18826707     -0.30102076     -0.78879039
O              26.15199460      5.10213259      7.35933062       8      0.20429912      1.17920617      0.01467641      0.52873690      0.40925283     -1.46169230
O              23.96453360      6.79663318      7.14125151       8      0.25211475     -0.08837320      0.90329123     -0.45746811      0.74998801     -0.44969534
O              23.52733292      9.87892011      7.15456459       8      0.30674730     -0.70259564      0.75842461     -0.07622935     -0.42934977      0.41826371
O              26.41751380     11.40798585      7.23471584       8      0.00543617      0.24559881      0.34251607     -0.03008242      0.26278268     -1.69010642
Si             26.26208213      5.53866025      8.89725538      14     -0.48169172     -0.73450931      0.85629072      0.60851221      0.14042717     -1.11525474
Si             23.73146962      6.97509613      8.70934150      14     -0.60829221     -0.61969966      0.30912969     -2.67335762      2.58636540      0.95670025
Si             23.56293478     10.03016277      8.75080344      14     -0.05691198      0.78262468     -0.27349531      0.34890559      2.02199291      0.83617663
Si             26.29874778     11.55868486      8.83017136      14      0.33376939      0.23566848     -1.88109347     -0.08395940      0.76715128     -0.28674696
O              24.93075320      6.19560764      9.28819601       8     -1.36565608     -1.29815292     -0.09531392      1.10763641     -1.21362900      1.48590688
O              27.66487681      6.04603940      9.32610700       8      0.87391316     -1.33533361     -0.54910932     -1.22495598     -1.11918117      0.41250080
O              23.68406419      8.51562257      9.16339413       8     -1.07148659      0.21507231      0.50094813      0.26883090     -2.91527769     -0.14857154
O              27.54595841     10.67853141      9.27225397       8      0.75895082     -0.17034667     -0.63670032      0.54738133     -0.42611570      0.42745893
O              24.87976370     10.88767791      9.08387207       8      1.82737492      0.74768996     -0.71702009     -0.78151414     -0.61970087      0.39325166
O              26.47052919     13.08849549      9.28568373       8     -0.56267575     -0.47661847      0.00284980     -0.02840298     -0.83681321     -0.63151258
Si             31.72989198      5.68127566      5.69574221      14      0.06816088      0.24187744      0.62808429      0.11706817      0.58063171     -1.28686598
Si             28.93476291      6.86945373      5.62161905      14      0.44432385     -1.09702076     -0.06227647      0.03247768      0.29180449      0.68129839
Si             28.87443153      9.88892211      5.50442173      14      0.91926645     -0.48343388     -0.11445767      4.23979677      0.57573595      0.80756005
Si             31.58608383     11.48840172      5.59995557      14     -1.89827010      0.65630228      0.13144407      0.70010849     -2.59277885     -2.09553942
O              30.34064497      6.21560443      5.30790791       8     -1.09865131      0.66598403     -0.08164170      0.27773710     -1.16213456     -0.20922967
O              33.05662615      6.14330476      5.01492005       8      0.06445292     -0.48281784     -1.15050587     -0.83998948     -0.52197195      0.42831162
O              29.10895469      8.32946348      5.14052112       8     -0.65402753     -0.52476498      0.45284257     -1.04505843      0.70565809     -0.47321976
O              32.89700730     10.56595229      5.16780884       8     -0.45308996      0.05257800      0.36167399     -0.63003658      0.48272923     -0.40277995
O              30.30374730     10.64016773      5.05379473       8      0.34451358     -0.31450482     -0.84973607     -1.67698080     -0.03926907      1.15667444
O              31.65209449     12.97134200      5.09889602       8      0.04010555     -0.71171415      0.09554271     -0.18747514      1.50206166      0.41728674
O              31.80446380      5.26801884      7.19581936       8      0.75085298     -0.49872660     -0.29390164     -0.13345665     -0.28227247      1.17172367
O              28.82362235      6.89985006      7.23568016       8     -0.26188540     -0.99564357     -0.68417403     -0.07529505     -0.72793112      0.68237593
O              28.95923587      9.83584310      7.13985099       8     -0.42628415     -0.28765575      0.04533986     -0.62750625      0.23810605      0.01834642
O              31.75377985     11.25642302      7.14203854       8     -1.07226212      0.17669092      0.41161570     -0.51177514      0.70955229      1.68688922
Si             31.69271122      5.66100534      8.75361990      14      0.63429593      1.06558829     -0.41976556     -1.08998976      0.05959533     -0.65618276
Si             28.87490952      6.91544340      8.86897652      14      0.33097605      0.66578303      0.87025651      2.50160530      1.97019347     -1.09637118
Si             28.89166043     10.02199101      8.77121410      14      0.10514904      0.14839032     -0.38650468      0.63190264     -0.02647428     -1.22842018
Si             31.67808590     11.48877553      8.76224388      14     -0.12185743     -1.16755790      1.73272194     -0.01254624     -0.40413612     -0.77301635
O              30.26576393      6.06744583      9.19838211       8     -0.50945012     -0.65471407     -0.52898843     -0.67337335      0.37726761     -0.31899446
O              33.06307115      6.16379400      9.18836957       8      0.30355296      0.52136196     -0.70840741      0.88833736      0.37496557      0.24385463
O              28.86176036      8.46850517      9.19201452       8      0.24648103      0.93569178     -0.17263093      0.16387533     -1.56805453      0.62754478
O              33.00472887     10.71222363      9.25895886       8     -0.72537153     -0.11839873     -0.79489687     -1.26021859     -0.12549300     -0.19896793
O              30.28750964     10.72153556      9.05616655       8     -0.42486324     -0.89147940      0.71880968      0.32234117      0.38050019      0.86327730
O              31.87814930     13.03459973      9.02915422       8     -0.34052015      0.01294211     -0.37088579     -0.76561544     -0.80475065      0.21970568
Si             36.95291543      5.42699776      5.61330905      14     -1.18954674     -0.46768418     -0.63209557      0.10900982      0.63249940     -2.22360390
Si             34.33465697      6.97280765      5.47068558      14      0.56480074     -0.21841359      0.33631714      1.70648284      0.71001906     -1.04434995
Si             34.33161910     10.00282912      5.49745459      14     -0.25941683     -1.12438273     -0.70995433      0.01087772      1.40645150     -0.30498623
Si             37.05079294     11.45041200      5.48592337      14     -0.45565378      0.21833920     -0.53564769     -1.91445963     -1.07490783     -0.34581002
O              35.66583197      6.07376311      5.04113604       8     -0.50358099     -0.12373629      0.04141002     -0.64457013      0.24397369      0.82727263
O              38.36965956      5.82513977      5.07676784       8     -0.39931558     -0.84200381     -0.13457283     -1.92212050     -0.70166828      0.09455297
O              34.49701730      8.47454648      4.99875281       8     -0.56619355      0.42973016     -0.49742456     -0.07101299     -1.33417534      0.54410767
O              38.21197681     10.40176401      5.07566225       8      0.17932029     -0.68640063      0.16139393     -0.29717256      0.34459064     -0.23248072
O              35.53482853     10.94948102      5.04267287       8     -0.05060664      1.71769847      0.89120653      1.12680820     -0.42773868      0.06887186
O              37.30234033     12.97513861      5.22754118       8      0.15771248     -0.10009288     -0.41781364      0.49534482     -0.49193414     -0.54495528
O              36.86114592      4.99212405      7.10621670       8     -0.14396374      0.09162547      0.19494980      0.03858364     -0.48210677     -0.28871816
O              34.30297827      6.80499317      7.07719528       8     -0.95922165      0.05956030     -1.06057779      0.09252096      0.35083179     -0.13797823
O              34.40144426      9.81222112      7.10858250       8     -0.42024813      0.19465397     -0.95769399     -0.33168754     -0.42202598     -0.25686422
O              36.90882467     11.23375853      7.05416803       8     -0.73764007      0.91137882     -0.47099609      0.54185042      0.22775587      1.68094129
Si             36.94233892      5.51035864      8.56735689      14     -0.15959538     -0.84367368     -0.93913143     -0.35214177      0.62763954      2.09644816
Si             34.36517305      7.00637896      8.67106370      14     -0.43877816      0.02141454     -0.71603529     -0.93639147     -0.95143327      0.64681384
Si             34.25870983      9.97984934      8.68680072      14      0.15553043      0.60611691     -1.37892054      2.30961504      1.06736277      1.09318553
Si             37.00673114     11.33795062      8.68696664      14     -0.48515999     -0.20902789      0.20431075      0.25667350     -0.72336509     -0.58519781
O              35.60137105      6.09873401      9.09379304       8     -0.48607306     -0.26089005     -0.16769551      0.94365377     -0.50063970     -0.25729717
O              38.32469466      5.99332615      9.04514918       8     -0.45830323     -0.77303788     -0.85964009     -0.31827184     -0.39182090      0.76468587
O              34.33949121      8.44453149      9.21148389       8      0.57398779     -0.77358162     -0.23518023     -0.14208656      0.50852662     -0.27868279
O              38.29926568     10.36764245      8.97132673       8     -0.66905303     -0.25186365      0.62743424      0.10556526      0.65442260     -0.12099087
O              35.61484747     10.72985368      9.17736630       8      0.71091968      1.13785674      0.35341855     -0.34304481     -0.75623382     -0.30990154
O              37.10572703     12.85398014      9.14706047       8     -0.51196174      0.25880697     -0.42513677      0.52691451     -0.53105027      0.26161630
Si             42.31784831      5.46154976      5.60927841      14     -0.56291551      0.48472585      0.62028464     -1.44217275      0.45499378     -1.36359874
Si             39.56249473      6.74750673      5.48581066      14      0.40379455     -0.27588221     -0.17034211      2.86672977      2.27965545     -0.36454027
Si             39.65471889      9.84813458      5.37093043      14      1.46880719      0.12232074      0.45531073      0.10704329     -2.18418273      0.75391874
Si             42.28582197     11.42825628      5.44824722      14     -1.25802569     -0.76894488     -1.57146374      0.62160566     -1.79385331     -0.54817671
O              40.83967953      5.73118223      5.15219705       8      0.60008691      0.32054374      0.08669055      0.68479137      0.70243314      0.91867773
O              43.67140861      6.05864073      5.15564628       8      0.90489675      0.72069062     -0.33401693     -1.53767086     -0.38396575     -0.57639003
O              39.87099723      8.23587560      4.91440135       8      0.85601860      0.97696470      0.50639384     -1.27233533     -1.23302326      1.22006954
O              43.65737653     10.53352792      5.14352217       8      1.11475399      0.85579939      0.78912910     -0.34296635     -0.13505443      0.27319032
O              40.95030850     10.58430144      4.95479745       8      0.16307446      0.19691565     -0.54067244      2.25166995      1.59786027      0.00495850
O              42.37956978     12.92290636      4.97141201       8      0.05779571      0.12729418     -1.06052977     -0.26985869     -0.95706798      0.23797836
O              42.38380658      5.11509127      7.13272688       8     -0.99828322      0.11044259      0.38701602      0.02037964     -0.67322843      0.29476608
O              39.40302720      6.80654413      7.12201816       8     -1.07844339      0.68247051     -0.29134792      0.65511671     -0.30916767     -2.44846718
O              39.79837834      9.63049853      6.98679543       8     -0.45774229      0.00455072      0.19393024     -0.43115140      0.05028790     -0.65075875
O              42.24736979     11.40912091      7.06111929       8     -1.16973505      0.09738501      0.32005554      0.51609395      0.31960045     -1.97077340
Si             42.29525612      5.44355920      8.66115925      14      0.91383561      0.89331424      1.50098874      0.66691527      0.69048405      0.63768143
Si             39.62618181      6.85274626      8.69256611      14      0.98256699      0.46315077     -0.25346413      0.44396058     -1.41472972      0.55008091
Si             39.77287517      9.84568091      8.57149041      14      0.32503745      0.38055448      0.31752406     -0.64724868      0.55662442      0.67955393
Si             42.48291180     11.45381764      8.61054172      14      0.96312203      0.26934217      0.02278007     -1.73395191      0.63935559      1.63750485
O              40.91951254      5.93469002      9.10680656       8      0.78343882      0.70798861     -0.79466993     -1.38597782      0.15486881     -0.32326050
O              43.60405409      6.09589109      9.17694348       8      0.11499479      1.46319859      0.14558904     -0.07991383     -0.69584196      0.14780154
O              39.86226327      8.29958927      9.10496462       8     -0.33858178     -1.39566900      0.75513840      0.17552873      1.62587844      0.53086352
O              43.79446422     10.68184582      9.01529093       8      0.72585804      0.06252186      0.12905779      0.72576901     -1.02590689     -0.22044483
O              41.08908627     10.65377095      8.92468140       8     -0.48061175     -0.19088592      0.06831856      0.09949259     -0.08378732      1.08232047
O              42.60521857     12.93867658      9.20899044       8      0.80949077      0.68693630     -1.01276159     -0.74916789     -0.68059093     -0.62337319
Si             47.59450584      5.67411950      5.65154061      14      1.00328714     -1.74801499     -0.27964207     -0.78271720      0.12759264     -2.12311512
Si             44.97068270      6.83988791      5.54872709      14     -1.01545405      0.56043273     -0.62275291      0.85193774     -1.07607385      0.16411993
Si             45.07158775      9.84030965      5.45949981      14      0.47680319     -1.20822636      0.24073898     -0.49338142      3.01473198      0.42785991
Si             47.76853011     11.37743241      5.29463968      14      0.23705058      0.80348408     -0.17231621     -0.02786104      2.20050699      1.15410686
O              46.15461823      5.83554450      5.06393186       8     -0.61602366     -0.56212213      0.56997240      0.75472096      0.26245525      0.80555296
O              48.82633774      6.28244933      4.95014388       8      0.32263665     -0.41290671     -0.78997153      1.63706728      0.51460131      0.86969257
O              45.16980360      8.30989003      5.11248622       8      0.93091275     -0.44661848      0.05019491     -0.09324794     -0.92520426     -0.48538144