7915
OrigWidth=249.54551971 OrigHeight=67.43324632 cell_origin="-132.27275986    -41.21662316     -9.93808612" strain=0.10000000 is_cracked=F n_efield_old=3 energy=-151390.86029147 cutoff=10.58354498 nneightol=1.20000000 pbc="T T T" Lattice="264.54551971       0.00000000       0.00000000       0.00000000      82.43324632       0.00000000       0.00000000       0.00000000      19.87617225" Properties=species:S:1:pos:R:3:Z:I:1:dipoles:R:3:clamp_mask:I:1:pos_orig:R:3:orig_index:I:1:map_shift:I:3:n_neighb:I:1:force:R:3:charge:R:1:fixdip:L:1:efield:R:3:efield_old1:R:3:efield_old2:R:3:efield_old3:R:3
Si             41.58733981     78.08806645      8.92172681      14      0.00000000      0.00000000      0.00000000       1     41.58611677     78.08586401      8.92185886       0       0      -1       0      89      0.00059875      0.00206622     -0.00006042      2.85911880    F     -0.80941704     -4.19294336     -1.03212004      0.20032006     -2.43717348     -0.15931347      0.20032006     -2.43717348     -0.15931347      0.20033932     -2.43715270     -0.15931439
Si             38.53529054     78.29345440      8.92889215      14      0.00000000      0.00000000      0.00000000       1     38.53376836     78.29318823      8.92875677       1       0      -1       0      88      0.00135740      0.00055305      0.00034131      2.85911880    F      0.02983892     -3.89128655     -1.10882800     -0.61874050     -1.98811983     -0.24341509     -0.61874050     -1.98811983     -0.24341509     -0.61870987     -1.98810120     -0.24341376
Si             34.09611450     75.06105946      9.02265824      14      0.00000000      0.00000000      0.00000000       1     34.09506203     75.05870265      9.02253423       2       0      -1       0     122     -0.00013027      0.00280954      0.00002422      2.85911880    F      0.37143852     -1.33141159     -1.36384363      0.33133160     -1.51241432     -1.26910693      0.33133160     -1.51241432     -1.26910693      0.33127433     -1.51239822     -1.26912254
Si             31.63773710     76.72068734      8.94652376      14      0.00000000      0.00000000      0.00000000       1     31.63664018     76.71821797      8.94652763       3       0      -1       0     101     -0.00110339      0.00207962      0.00025984      2.85911880    F      0.14233978     -3.39615225     -0.63101860      0.16482421     -1.90112991     -0.02134414      0.16482421     -1.90112991     -0.02134414      0.16490735     -1.90119788     -0.02135356
Si             37.06386753     75.72618311      9.01483457      14      0.00000000      0.00000000      0.00000000       1     37.06243890     75.72579818      9.01475943       4       0      -1       0     103      0.00069883      0.00086543      0.00007199      2.85911880    F     -0.00427778     -1.29164694     -1.37855222     -0.01117356     -1.46121515     -1.44134893     -0.01117356     -1.46121515     -1.44134893     -0.01110075     -1.46122589     -1.44133655
Si             48.52158694     76.38418633      8.97232677      14      0.00000000      0.00000000      0.00000000       1     48.52190288     76.38311920      8.97191427       5       0      -1       0     101     -0.00005818      0.00075688      0.00001116      2.85911880    F     -0.51580969     -3.60889986     -0.87504054     -0.90955269     -2.01869671     -0.35491032     -0.90955269     -2.01869671     -0.35491032     -0.90955955     -2.01867196     -0.35491418
Si             51.53968101     76.52502942      8.98870833      14      0.00000000      0.00000000      0.00000000       1     51.54015429     76.52392481      8.98829867       6       0      -1       0      99     -0.00001923      0.00039740      0.00010479      2.85911880    F      0.83443408     -3.17522823     -0.88855496      0.98529524     -1.64962107     -0.33648064      0.98529524     -1.64962107     -0.33648064      0.98530021     -1.64961537     -0.33647700
Si             61.20903522     77.36455513      9.03878009      14      0.00000000      0.00000000      0.00000000       1     61.21211008     77.36044112      9.03877001       7       0      -1       0      97     -0.00149964      0.00232609     -0.00002897      2.85911880    F      0.89378416     -3.74927578     -0.90518601      1.17853651     -1.84816592     -0.38946961      1.17853651     -1.84816592     -0.38946961      1.17851618     -1.84818830     -0.38945786
Si              5.36803609     76.34196003      9.07692026      14      0.00000000      0.00000000      0.00000000       1      5.40842860     76.34316240      9.15943504       8       0      -1       0      49     -0.03036299     -0.00101805     -0.05648800      2.85911880    F      3.30361119     -1.31265937     -2.56433566      0.32789845     -0.54341778     -0.68110665      0.32789845     -0.54341778     -0.68110665      0.32829481     -0.54418752     -0.68100602
Si              7.72024161     78.31064513      9.06698521      14      0.00000000      0.00000000      0.00000000       1      7.67638772     78.19848153      9.07069520       9       0      -1       0      50      0.02462269      0.06836910     -0.00012148      2.85911880    F      0.80922752     -3.38563433     -2.42566230      0.52713093     -0.36331229     -0.69645992      0.52713093     -0.36331229     -0.69645992      0.52714987     -0.36385470     -0.69598860
Si             10.50032279     77.04809757      9.05243599      14      0.00000000      0.00000000      0.00000000       1     10.35860356     76.83116660      9.06122812      10       0      -1       0      74      0.09510308      0.15680802     -0.00705155      2.85911880    F     -0.67169054     -3.74581753     -1.43167137      0.77423030     -1.72405787     -0.45497572      0.77423030     -1.72405787     -0.45497572      0.77446516     -1.72336282     -0.45480386
Si             66.14557355     74.96600246      9.14368948      14      0.00000000      0.00000000      0.00000000       0     66.14655484     74.96797250      9.14353548      11       0      -1       0     116      0.00168958     -0.00174485     -0.00001041      2.85911880    F     -0.11126007     -1.31029521     -1.34406792      0.00528009     -0.89340699     -1.03377059      0.00528009     -0.89340699     -1.03377059      0.00526984     -0.89340780     -1.03381125
Si             14.54326320     74.00885138      9.09449478      14      0.00000000      0.00000000      0.00000000       1     14.54762554     73.98300535      9.09157714      12       0      -1       0     114     -0.00648213      0.01940490      0.00272378      2.85911880    F      0.64963756     -1.35908129     -1.38289301      0.49541464     -1.69433073     -1.12668413      0.49541464     -1.69433073     -1.12668413      0.49525934     -1.69466337     -1.12662404
Si             16.51239195     76.17414867      9.01487775      14      0.00000000      0.00000000      0.00000000       1     16.48648269     76.16243939      9.01321487      13       0      -1       0      96      0.01519182      0.00404196      0.00049517      2.85911880    F     -1.16979318     -2.99464431     -1.03372010     -1.05763069     -1.59456726     -0.29436580     -1.05763069     -1.59456726     -0.29436580     -1.05754245     -1.59471804     -0.29437839
Si             19.50084743     75.85087255      9.00206695      14      0.00000000      0.00000000      0.00000000       1     19.47674827     75.83866185      9.00227159      14       0      -1       0      93      0.01363770      0.00697920     -0.00050143      2.85911880    F      0.67828147     -3.25284843     -0.92088556      0.93642626     -1.74218228     -0.36198033      0.93642626     -1.74218228     -0.36198033      0.93652360     -1.74200549     -0.36186756
Si             56.60563053     74.40188582      9.06628963      14      0.00000000      0.00000000      0.00000000       1     56.60651087     74.39912318      9.06616357      15       0      -1       0     118     -0.00027903      0.00225785      0.00010718      2.85911880    F      0.04750520     -1.37322443     -1.37151169      0.05834877     -1.70377518     -1.43444149      0.05834877     -1.70377518     -1.43444149      0.05834245     -1.70377923     -1.43445641
Si             58.23271900     76.88828759      9.02849546      14      0.00000000      0.00000000      0.00000000       1     58.23632157     76.88382374      9.02847669      16       0      -1       0      95     -0.00200428      0.00335167     -0.00000280      2.85911880    F     -0.03386688     -3.32238577     -0.87038685     -0.59309331     -1.81952752     -0.34942497     -0.59309331     -1.81952752     -0.34942497     -0.59308031     -1.81951872     -0.34942652
Si             26.15348232     75.41292396      8.97342314      14      0.00000000      0.00000000      0.00000000       1     26.15479429     75.41269047      8.97317891      17       0      -1       0     100     -0.00230800     -0.00201410      0.00024472      2.85911880    F      0.54733048     -2.78900282     -0.50204986      0.22760650     -1.69621933     -0.05619495      0.22760650     -1.69621933     -0.05619495      0.22781946     -1.69635443     -0.05624058
Si             44.14682030     73.08060232      9.04162628      14      0.00000000      0.00000000      0.00000000       0     44.14643801     73.07887363      9.04160319      18       0      -1       0     133      0.00024267      0.00067668     -0.00007712      2.85911880    F     -0.26540549     -0.65861380     -1.26365685     -0.36643380     -0.99173398     -1.14443496     -0.36643380     -0.99173398     -1.14443496     -0.36641305     -0.99173401     -1.14441446
Si             21.16589767     73.41420203      9.06080182      14      0.00000000      0.00000000      0.00000000       1     21.16754760     73.41827153      9.06046882      19       0      -1       0     116     -0.00398542     -0.00570472      0.00118422      2.85911880    F     -0.23649083     -1.35727368     -1.33197482     -0.12057461     -1.60816930     -1.31871312     -0.12057461     -1.60816930     -1.31871312     -0.12046097     -1.60847094     -1.31895522
Si             29.11296068     75.16179013      9.04167038      14      0.00000000      0.00000000      0.00000000       1     29.11297262     75.15794598      9.04160086      20       0      -1       0     104     -0.00160753      0.00314773     -0.00001723      2.85911880    F      0.67751735     -1.85139952     -1.41529972      0.57969835     -1.66106008     -1.20857600      0.57969835     -1.66106008     -1.20857600      0.57951406     -1.66121529     -1.20861510
Si             39.33572795     73.77122122      9.03749201      14      0.00000000      0.00000000      0.00000000       0     39.33391758     73.76955919      9.03741045      21       0      -1       0     132     -0.00012830      0.00079947     -0.00021238      2.85911880    F      0.48962436     -0.41968187     -1.19907242      0.51711240     -0.92182724     -0.79021318      0.51711240     -0.92182724     -0.79021318      0.51710755     -0.92181400     -0.79022470
Si             42.00378184     75.23950137      9.02682875      14      0.00000000      0.00000000      0.00000000       1     42.00276717     75.23736015      9.02692694      22       0      -1       0     107      0.00079205      0.00190493     -0.00001788      2.85911880    F     -0.64366018     -1.57468854     -1.07261368     -0.62227265     -1.67636817     -1.05700645     -0.62227265     -1.67636817     -1.05700645     -0.62223886     -1.67637522     -1.05701346
Si             47.08522634     73.83796283      9.04261677      14      0.00000000      0.00000000      0.00000000       1     47.08470332     73.83724362      9.04239355      23       0      -1       0     121      0.00028080      0.00073778      0.00000630      2.85911880    F      0.05323401     -1.61098614     -1.06193190     -0.01606125     -1.74058359     -1.28786913     -0.01606125     -1.74058359     -1.28786913     -0.01605972     -1.74057826     -1.28786141
Si              6.34258783     73.42834750      9.07338138      14      0.00000000      0.00000000      0.00000000       0      6.35334324     73.44171035      9.14723832      24       0      -1       0      72     -0.01128175     -0.00570784      0.00235669      2.85911880    F      3.86866462      0.72699477     -1.44475016      1.71044830     -0.79835509     -0.39131544      1.71044830     -0.79835509     -0.39131544      1.70955645     -0.79925626     -0.39171757
Si             11.50425529     74.18159509      9.11200635      14      0.00000000      0.00000000      0.00000000       1     11.49365417     74.04809543      9.10699310      25       0      -1       0     100      0.00676743      0.10736973      0.00516455      2.85911880    F      0.35541161     -0.65652983     -1.69553959      0.76961742     -1.21072880     -1.54631176      0.76961742     -1.21072880     -1.54631176      0.77052527     -1.20961452     -1.54646919
Si             53.53838966     74.34981132      9.05195569      14      0.00000000      0.00000000      0.00000000       1     53.53929816     74.34895449      9.05173779      26       0      -1       0     118      0.00013851      0.00052484     -0.00000453      2.85911880    F      0.12906250     -1.59046883     -1.29406575      0.17887913     -1.83075749     -1.37786872      0.17887913     -1.83075749     -1.37786872      0.17887624     -1.83076412     -1.37786488
Si             58.50515764     72.07284293      9.08650381      14      0.00000000      0.00000000      0.00000000       0     58.50518302     72.06871589      9.08626669      27       0      -1       0     144      0.00056521      0.00021949      0.00006873      2.85911880    F      0.60313517     -0.33768904     -1.19326916      0.69169422     -0.87736092     -0.78635740      0.69169422     -0.87736092     -0.78635740      0.69172614     -0.87733096     -0.78633543
Si             30.15381778     72.28249717      9.04426019      14      0.00000000      0.00000000      0.00000000       0     30.15162129     72.27743531      9.04401103      28       0      -1       0     132      0.00061630      0.00111212      0.00010181      2.85911880    F      0.14658584     -0.71742696     -1.16230966      0.26778731     -1.09434449     -1.07606322      0.26778731     -1.09434449     -1.07606322      0.26783930     -1.09430787     -1.07606989
Si             24.21993068     73.15393514      9.05459931      14      0.00000000      0.00000000      0.00000000       1     24.22014650     73.15480622      9.05438257      29       0      -1       0     125     -0.00366168     -0.00196064     -0.00018449      2.85911880    F      0.15801465     -1.36008889     -1.33820161      0.14756447     -1.61529835     -1.23896882      0.14756447     -1.61529835     -1.23896882      0.14722268     -1.61552348     -1.23907687
Si             61.46629030     72.55812116      9.10396314      14      0.00000000      0.00000000      0.00000000       0     61.46693662     72.55436553      9.10385690      30       0      -1       0     146      0.00139378     -0.00086375     -0.00001227      2.85911880    F     -0.64408204     -0.84257936     -1.16180068     -0.36360686     -1.25622771     -0.80029527     -0.36360686     -1.25622771     -0.80029527     -0.36368110     -1.25622322     -0.80030900
Si             33.22102953     72.15264583      9.04516087      14      0.00000000      0.00000000      0.00000000       0     33.21930635     72.15011158      9.04483202      31       0      -1       0     133      0.00038039      0.00110772     -0.00022425      2.85911880    F     -0.19421406     -0.48002135     -1.14713764     -0.02878421     -0.76026893     -1.10171085     -0.02878421     -0.76026893     -1.10171085     -0.02876542     -0.76031528     -1.10171586
Si             52.11992827     71.67856651      9.06083853      14      0.00000000      0.00000000      0.00000000       0     52.11924326     71.67830060      9.06060277      32       0      -1       0     143      0.00050992      0.00038921      0.00009619      2.85911880    F     -0.41368731     -0.89256195     -1.05258016     -0.23569210     -1.45879704     -0.99088163     -0.23569210     -1.45879704     -0.99088163     -0.23569308     -1.45881878     -0.99087685
Si              9.12976694     72.27366202      9.11587742      14      0.00000000      0.00000000      0.00000000       0      9.11307219     72.14839001      9.12733089      33       0      -1       0     101     -0.00439696      0.01166988     -0.00156643      2.85911880    F      0.73042319     -0.60401635     -1.76594635      1.06192018     -0.92726574     -1.52410103      1.06192018     -0.92726574     -1.52410103      1.06202784     -0.92891105     -1.52372436
Si             49.06579947     71.53888026      9.05641990      14      0.00000000      0.00000000      0.00000000       0     49.06516957     71.53777988      9.05619962      34       0      -1       0     143      0.00050803      0.00101807      0.00008157      2.85911880    F      0.07123204     -0.56786043     -1.08743815     -0.23214257     -1.16923721     -0.85497595     -0.23214257     -1.16923721     -0.85497595     -0.23213127     -1.16923719     -0.85496795
Si             16.16791124     71.43827645      9.09496922      14      0.00000000      0.00000000      0.00000000       0     16.18945404     71.42957039      9.09473593      35       0      -1       0     127     -0.00637417     -0.00021358     -0.00137357      2.85911880    F     -0.04276347     -0.61380846     -1.12693996     -0.15506239     -1.23328542     -0.93333971     -0.15506239     -1.23328542     -0.93333971     -0.15479528     -1.23353258     -0.93340142
Si             19.20850976     71.05641328      9.08066342      14      0.00000000      0.00000000      0.00000000       0     19.22662498     71.04958159      9.08024477      36       0      -1       0     132     -0.00772108     -0.00183371      0.00010624      2.85911880    F      0.04678119     -0.65739631     -1.20770776      0.08638445     -1.16861769     -1.01596861      0.08638445     -1.16861769     -1.01596861      0.08617711     -1.16870648     -1.01610330
Si             25.39019280     70.35533905      9.06234697      14      0.00000000      0.00000000      0.00000000       0     25.38500731     70.35243784      9.06216709      37       0      -1       0     147     -0.00055805     -0.00114071      0.00005691      2.85911880    F     -0.11724127     -0.64791701     -1.11674371     -0.08909934     -0.87212737     -0.96492536     -0.08909934     -0.87212737     -0.96492536     -0.08913516     -0.87233758     -0.96493880
Si             28.38770783     69.80134761      9.06026971      14      0.00000000      0.00000000      0.00000000       0     28.38363038     69.79633377      9.06001908      38       0      -1       0     148     -0.00002235      0.00147565     -0.00039132      2.85911880    F      0.21830786     -0.09752158     -1.13437206      0.25537383     -0.42810414     -1.02479169      0.25537383     -0.42810414     -1.02479169      0.25532761     -0.42815241     -1.02483008
Si             34.65508520     69.48234925      9.05317514      14      0.00000000      0.00000000      0.00000000       0     34.65145289     69.47823896      9.05295169      39       0      -1       0     155     -0.00039102      0.00098278     -0.00007775      2.85911880    F      0.05652028     -0.47083941     -1.08447769      0.00799085     -0.53551878     -1.00791436      0.00799085     -0.53551878     -1.00791436      0.00802340     -0.53556554     -1.00791985
Si             55.48857236     67.47157869      9.07271187      14      0.00000000      0.00000000      0.00000000       0     55.48668564     67.46886283      9.07249170      40       0      -1       0     159      0.00013418      0.00020238     -0.00040861      2.85911880    F     -0.05769920     -0.01998413     -0.89839781      0.12908357     -0.22817358     -0.93781428      0.12908357     -0.22817358     -0.93781428      0.12907802     -0.22822184     -0.93784711
Si             11.77862610     67.75661765      9.11511092      14      0.00000000      0.00000000      0.00000000       0     11.79960014     67.76990578      9.11629918      41       0      -1       0     137     -0.00484155     -0.00149893      0.00026658      2.85911880    F      0.98763539     -0.24283193     -1.12672900      1.59277467     -0.19217390     -0.76403386      1.59277467     -0.19217390     -0.76403386      1.59259767     -0.19203428     -0.76403427
Si             37.62272134     68.76905761      9.05371986      14      0.00000000      0.00000000      0.00000000       0     37.61993828     68.76679161      9.05361472      42       0      -1       0     154      0.00018942      0.00051839     -0.00008058      2.85911880    F     -0.23501214     -0.26033910     -1.05434917     -0.18283072     -0.40262783     -1.05788467     -0.18283072     -0.40262783     -1.05788467     -0.18278731     -0.40266866     -1.05789477
Si             39.91360728     70.77380714      9.04526853      14      0.00000000      0.00000000      0.00000000       0     39.91148279     70.77175676      9.04515811      43       0      -1       0     148      0.00053317      0.00066836     -0.00002284      2.85911880    F     -0.01535886     -0.34238882     -1.12420260     -0.08493200     -0.45591811     -1.16282126     -0.08493200     -0.45591811     -1.16282126     -0.08490587     -0.45594287     -1.16281299
Si             14.50962532     68.92444495      9.10281397      14      0.00000000      0.00000000      0.00000000       0     14.55120135     68.90541590      9.10100522      44       0      -1       0     150     -0.00482508      0.00147589     -0.00075174      2.85911880    F      0.17186595     -0.79810476     -1.03640341      0.03210723     -1.03416712     -0.73385571      0.03210723     -1.03416712     -0.73385571      0.03188970     -1.03406954     -0.73386519
Si             62.44641875     69.69810025      9.10389625      14      0.00000000      0.00000000      0.00000000       0     62.44569361     69.69396368      9.10393134      45       0      -1       0     158      0.00223486     -0.00131023     -0.00011628      2.85911880    F      0.59903351     -0.52536289     -0.86834502      0.46875062     -0.64578692     -0.82812318      0.46875062     -0.64578692     -0.82812318      0.46883916     -0.64573225     -0.82810708
Si             64.92651260     68.28671955      9.11490261      14      0.00000000      0.00000000      0.00000000       0     64.92774336     68.28755932      9.11498704      46       0      -1       0     163      0.00191929     -0.00569781     -0.00002736      2.85911880    F     -0.07198650     -0.13111574     -0.77911053     -0.17533538     -0.12676334     -0.38123221     -0.17533538     -0.12676334     -0.38123221     -0.17539171     -0.12687186     -0.38116019
Si              9.14181799     69.18801646      9.11967282      14      0.00000000      0.00000000      0.00000000       0      9.07621237     69.08896865      9.12973056      47       0      -1       0     112      0.00288699      0.00836339     -0.00258012      2.85911880    F      1.49805838     -0.40491681     -1.33165008      1.88230272     -0.47913837     -1.30689705      1.88230271     -0.47913837     -1.30689705      1.88437449     -0.47647623     -1.30812142
Si             47.85586470     68.74251661      9.05581653      14      0.00000000      0.00000000      0.00000000       0     47.85502148     68.74124785      9.05550348      48       0      -1       0     161      0.00082742      0.00110320      0.00006739      2.85911880    F      0.09194108     -0.30296653     -1.01785188      0.32222209     -0.46244294     -0.89657982      0.32222209     -0.46244294     -0.89657982      0.32219561     -0.46246036     -0.89656683
Si             44.90550799     67.99284188      9.05527967      14      0.00000000      0.00000000      0.00000000       0     44.90454835     67.99053002      9.05497178      49       0      -1       0     151      0.00101375      0.00128944     -0.00010244      2.85911880    F      0.44129207     -0.22334094     -1.02327615      0.34963266     -0.36464351     -1.02530848      0.34963266     -0.36464351     -1.02530848      0.34962342     -0.36469516     -1.02529669
Si             58.02201483     69.06681887      9.07776486      14      0.00000000      0.00000000      0.00000000       0     58.02176084     69.06236205      9.07746869      50       0      -1       0     169      0.00018083      0.00035617     -0.00014793      2.85911880    F     -0.14608466     -0.75140462     -1.05022540     -0.06148429     -0.57784477     -0.91331541     -0.06148429     -0.57784477     -0.91331541     -0.06149885     -0.57785221     -0.91333368
Si              6.68566767     67.55161158      9.06941975      14      0.00000000      0.00000000      0.00000000       0      6.50175107     67.44368485      9.14304272      51       0      -1       0      92      0.01341824      0.01001263      0.00041680      2.85911880    F      3.39320067      0.50733788     -0.95464583      1.91557243      0.72204097     -0.40123926      1.91557243      0.72204097     -0.40123926      1.91561445      0.72064022     -0.40156280
Si             20.41231512     68.24581401      9.08434754      14      0.00000000      0.00000000      0.00000000       0     20.41146589     68.23407111      9.08415905      52       0      -1       0     153     -0.00766169     -0.00194106     -0.00000898      2.85911880    F      0.07383042     -0.29672656     -1.11253191      0.17418963     -0.40536012     -1.05666359      0.17418963     -0.40536012     -1.05666359      0.17418549     -0.40559531     -1.05670106
Si             23.45983973     68.01696344      9.07655799      14      0.00000000      0.00000000      0.00000000       0     23.45962342     68.01020687      9.07648837      53       0      -1       0     149     -0.00790591      0.00471478     -0.00034520      2.85911880    F      0.24456118     -0.16502829     -1.05960736      0.28755658     -0.32141642     -0.96148357      0.28755658     -0.32141642     -0.96148357      0.28743200     -0.32142687     -0.96139833
Si             52.77073507     68.77590401      9.06459904      14      0.00000000      0.00000000      0.00000000       0     52.76976289     68.77545737      9.06436105      54       0      -1       0     168      0.00055093      0.00050972      0.00003359      2.85911880    F     -0.11303112     -0.40214702     -0.89561653     -0.12565025     -0.35646703     -0.88431289     -0.12565025     -0.35646703     -0.88431289     -0.12568068     -0.35650755     -0.88431161
Si             29.87748538     67.12328881      9.06787879      14      0.00000000      0.00000000      0.00000000       0     29.87256853     67.11651163      9.06778033      55       0      -1       0     161     -0.00229823      0.00013262     -0.00028028      2.85911880    F     -0.14173521     -0.22050832     -1.05521202     -0.08090021     -0.26399704     -1.10351232     -0.08090021     -0.26399704     -1.10351232     -0.08085192     -0.26419092     -1.10358333
Si             32.92900193     66.93680827      9.06465361      14      0.00000000      0.00000000      0.00000000       0     32.92531482     66.93204047      9.06456385      56       0      -1       0     159     -0.00156889      0.00140625     -0.00027810      2.85911880    F      0.20057113      0.07264855     -1.08540698      0.18283194     -0.16908899     -0.99022203      0.18283194     -0.16908899     -0.99022203      0.18277819     -0.16919573     -0.99021687
Si             50.30127729     67.02859440      9.05938715      14      0.00000000      0.00000000      0.00000000       0     50.30084420     67.02716080      9.05908188      57       0      -1       0     172      0.00026270      0.00118247      0.00016602      2.85911880    F      0.13134983      0.02751404     -0.96354966      0.02279912     -0.10777730     -0.73667642      0.02279912     -0.10777730     -0.73667642      0.02282449     -0.10781525     -0.73665780
Si             60.52037914     67.32611162      9.08832849      14      0.00000000      0.00000000      0.00000000       0     60.51961646     67.32166862      9.08818888      58       0      -1       0     182     -0.00020721      0.00014443      0.00001693      2.85911880    F     -0.32974166      0.54579566     -1.08637409     -0.33990043      0.38520636     -0.81029308     -0.33990043      0.38520636     -0.81029308     -0.33993403      0.38517936     -0.81029984
Si             15.67804617     66.11103738      9.10392680      14      0.00000000      0.00000000      0.00000000       0     15.68725359     66.08533052      9.10275499      59       0      -1       0     161     -0.00790580      0.00142965     -0.00088114      2.85911880    F      0.00700852      0.41727190     -0.99874214     -0.22557343      0.18103521     -0.86115925     -0.22557343      0.18103521     -0.86115925     -0.22564610      0.18104087     -0.86121893
Si             18.66417431     65.73713952      9.09582774      14      0.00000000      0.00000000      0.00000000       0     18.66664437     65.72561680      9.09567406      60       0      -1       0     161     -0.00791372     -0.00427151     -0.00038418      2.85911880    F      0.17179146     -0.19742046     -1.01795796      0.15423822     -0.13351580     -1.11964246      0.15423822     -0.13351580     -1.11964246      0.15443323     -0.13365656     -1.11972651
Si             64.96338941     65.43687211      9.10742659      14      0.00000000      0.00000000      0.00000000       0     64.96307468     65.44105712      9.10706447      61       0      -1       0     168      0.00100549     -0.00701509      0.00033339      2.85911880    F      0.21821929      0.08731230     -0.62375182      0.20010287      0.25872351     -0.73488951      0.20010288      0.25872351     -0.73488951      0.20026744      0.25850884     -0.73493377