7915
energy=-151313.73497888 time=20000.00000000 temperature=299.36663893 cutoff=10.58354498 nneightol=1.20000000 pbc="T T T" Lattice="264.54551971       0.00000000       0.00000000       0.00000000      82.43324632       0.00000000       0.00000000       0.00000000      19.87617225" Properties=species:S:1:pos:R:3:Z:I:1:momenta:R:3:force:R:3
Si             41.56079581     78.19303181      8.94314278      14      0.12485695     -0.30063240     -1.74523471     -0.36185936     -0.48507306      0.38059650
Si             38.49122858     78.24836529      8.90866879      14      1.83877270      0.84385507      0.01160231      1.29298274     -0.29302149     -0.23359943
Si             34.16932195     75.02499367      8.98226711      14      0.23764911     -1.32200915     -1.42502545      0.32135848      0.99050020     -0.71560508
Si             31.67326600     76.65065269      8.99786475      14     -0.19353970      0.03925110     -0.23572103     -1.02282382     -0.16261469      0.67415668
Si             37.10725240     75.64321083      9.04468819      14      0.12811204     -0.62868158     -0.78573458     -0.15355083      0.15022665      0.49194467
Si             48.69638023     76.34003553      8.95171198      14      0.42332401     -0.70817339      0.30395047      0.71760875      0.28408191     -0.05704415
Si             51.65046232     76.56813519      9.13132511      14     -0.23227402      0.09738270     -0.50238163      2.78840303      0.25790603     -1.28413446
Si             61.31883170     77.25910057      9.26600422      14      0.25791820     -0.20128500      1.13293501      0.50747678     -0.59843115     -0.96339784
Si              5.36803609     76.30541118      9.07692026      14      0.00000000      0.77903913      0.00000000      0.19289047     -0.83943750      0.12942114
Si              7.72024161     78.30824968      9.06698521      14      0.00000000      0.55278305      0.00000000     -1.34622096      0.10002406     -0.36932953
Si             10.55848926     77.10926302      9.06692543      14     -0.30830342     -0.60452515      1.00992505     -1.44207616      0.19344653      0.58569816
Si             66.38229913     75.02615127      9.37232729      14     -1.20081141     -1.37685757     -0.04851419     -1.49695155      1.62721088      1.53005895
Si             14.58240847     73.80809675      9.20387500      14      0.54521591     -1.02371587      0.13356452     -1.23899398      0.57747429     -0.63802101
Si             16.38184651     76.17298757      9.16714448      14      1.46529391      0.45002188      0.51857826      0.31390748     -0.75901536     -0.96154419
Si             19.43427629     75.69168528      9.01953195      14      0.13263203      0.02205931     -1.19636105     -0.14953128      0.12872236      0.99975350
Si             56.66500158     74.42482192      9.14017623      14      0.26488050     -0.38172261      0.65187102      1.25420357     -0.74032060      2.02038375
Si             58.30775394     76.92694294      9.25723867      14      0.65908934      1.82236956     -0.29856168     -0.10404005     -0.09657364     -1.25038251
Si             26.15748016     75.38129672      9.01411687      14      1.54335246     -0.39107321     -0.66243825      1.27902532      0.86135835     -1.46277830
Si             44.14245397     73.24366172      8.89543497      14      1.86909955      0.17954141     -1.95847045     -1.56636822     -0.62872107      0.31772335
Si             21.08360939     73.31460796      8.97397235      14     -0.72109969     -0.22836628      0.85489019     -1.14156493     -1.31114851      0.38920346
Si             29.00989528     75.21649487      9.06322364      14     -0.66331336      0.82063998      2.58028821      1.27130220     -0.09611489     -0.63992115
Si             39.41008238     73.74635535      9.03314447      14      0.02923782     -1.04077863     -0.11899089     -1.45401275     -0.29299161      0.41629120
Si             41.98851756     75.31997313      8.92846948      14      1.78445328      1.10822952      0.15125125      1.04065971     -0.95259928      0.26988687
Si             47.08758903     73.87551806      9.10192726      14      1.20798410     -1.18100051      1.20275236     -1.14046605     -1.71865535     -0.05793108
Si              6.34258783     73.38571483      9.07338138      14     -0.00000000     -0.83563826     -0.00000000     -0.08961745     -0.05086164     -0.02700357
Si             11.52805586     74.21447874      9.21496417      14     -1.04158841      0.37506960     -0.38157161      0.26613577      1.06454639     -1.12557741
Si             53.67079409     74.45040328      9.17172510      14     -0.10664360     -0.26254255      0.94556120     -0.45054966     -1.31273085     -1.05897817
Si             58.72000607     72.22753169      9.29142073      14     -0.65247650     -0.92170202     -0.36190211      0.51810990      0.13581793     -0.37702689
Si             30.11356259     72.37316545      8.93466417      14     -0.75125969      0.56310709     -0.29549406      1.69176392     -1.18584958      0.30158083
Si             24.13879218     73.15378153      9.12288710      14     -1.30654824     -0.53465576     -0.50611764      0.65701575      0.53926287     -1.14577022
Si             61.64837201     72.55264337      9.30468224      14     -2.08609917      0.62393534     -0.82626062      1.16398544     -0.27238392      1.00754245
Si             33.17227569     72.15035912      8.89276035      14      0.53377153     -0.60370271     -0.63679615      1.71019637     -0.19770546      1.98041034
Si             52.14212088     71.80526385      9.09364742      14     -0.22246681      0.74546450     -0.52888394     -0.98289568      1.65623572     -1.35714411
Si              9.12976694     72.29240726      9.11587742      14     -0.00000000     -1.24355774     -0.00000000      0.96166161      0.75602598      0.21006026
Si             48.95018981     71.49134357      9.09720644      14      0.39504761      0.59601953     -0.06599830      0.90901270      0.08579078      0.79260446
Si             16.29779700     71.29824130      9.08917173      14      0.08990389      0.56677909      0.48355991     -0.65008118     -0.37972584      2.75229074
Si             19.39287171     70.83237438      8.99558413      14      0.48156369      1.27873895      0.39749291     -0.54169724     -0.60423028     -0.00024709
Si             25.43017263     70.29762523      9.03398626      14     -0.83831655     -0.43991088      0.84649236      2.90492493      1.09585751     -2.51495750
Si             28.50826692     69.76151950      9.00921808      14     -0.01496884     -0.36226676     -0.56202839     -0.96422580     -0.24588701      0.37068860
Si             34.71659502     69.44330658      9.00872186      14      0.22841531      0.64340262      0.24978115      0.37800214      2.04769147     -0.34414785
Si             55.70895959     67.77030212      9.05402133      14      0.37870359      0.75079850     -1.02375652      0.95091311     -1.60110635      0.79592621
Si             11.76081956     67.80521611      9.20160165      14     -0.12813665     -0.45314369     -1.53512396      1.28052374     -1.84406515     -0.46954831
Si             37.67383149     68.79900015      8.95453802      14     -0.12237733      2.10628160     -0.86250743     -0.68599049      0.01055376     -0.97467747
Si             40.00884854     70.74010246      8.93400241      14      0.79959623     -1.44332503      2.47191404      0.64589084     -1.48719942      0.60843935
Si             14.53160914     68.87671092      9.14961702      14     -0.49965297      0.22558701      0.56377828     -0.68644082     -1.37742665      0.38065883
Si             62.69371689     69.76616490      9.37122778      14     -1.37903814     -0.69900422     -0.42033620     -0.77526977      1.08081740     -1.57503790
Si             65.18558124     68.33941357      9.30377929      14      0.01941522      1.47514247      0.41391729     -1.42708527      0.14647535     -0.04612799
Si              9.14181799     69.19780804      9.11967282      14     -0.00000000     -0.07259431     -0.00000000     -0.95959848     -0.69074451      0.18327494
Si             47.98176857     68.63385076      8.95134224      14      0.24646772     -1.43560095     -0.48262519      0.69742344      0.30116972      0.20922853
Si             44.96031578     68.07275562      8.99937286      14     -0.35102886      0.71655149      0.21483401     -0.41892809      0.25263263      1.40584210
Si             58.35031843     69.26673894      9.24330075      14     -0.30471016     -0.29078281      1.65510856     -1.49766109     -0.13918343      3.04268996
Si              6.68566767     67.41255271      9.06941975      14     -0.00000000     -0.71509824     -0.00000000     -0.38784971     -0.94983328     -0.12449694
Si             20.46127764     68.09408725      8.82036790      14      0.18562643     -0.28284455      0.05986903      0.04028340     -0.71180344      1.36109036
Si             23.57761785     67.95146696      8.90585925      14      0.11685370      1.77054245     -0.38743584     -0.89379313      0.45830639      0.89286955
Si             53.01302325     68.95162255      9.08799295      14      0.80729069     -0.74227770     -3.00374350     -1.01093009      1.08925101     -1.51692552
Si             29.94095270     67.12280470      8.95450937      14     -0.17631321     -0.73144199      0.71285617      0.00846894     -0.21034497      1.15906699
Si             33.08162309     66.89097104      8.86071950      14      0.66052490      0.24286211      0.15949709     -1.29088272     -1.23047969      0.69154713
Si             50.58841951     67.12456011      8.96654268      14     -0.59545432     -0.50106440     -0.71476597     -0.52262556      0.19148092     -0.37524010
Si             60.79924097     67.49781878      9.17727750      14     -0.22033116     -1.15802035     -0.71803267     -0.46443948     -0.22589068      1.58876218
Si             15.66614431     65.94330841      9.10293443      14      0.61557805      0.24425613      0.16475208     -0.26671552      0.90754897      0.53570920
Si             18.62229520     65.57494810      8.89353053      14      1.16183196     -0.96282742     -1.10124918     -0.13396536      1.58649135      0.83515246
Si             65.28816682     65.55854984      9.20298547      14      0.41334156     -0.30485580      0.74313034      0.15824372     -2.11161573     -0.69994015
Si             37.83773203     65.79276221      8.96464137      14      0.01506699      0.00919158     -0.24495823     -1.07469250     -0.37380979     -1.04681406
Si             24.97680485     65.24071218      8.81363281      14      0.13710916     -0.58970217      1.07048222     -0.25191195      1.23327922      0.13970348
Si             27.97522683     64.79183645      8.96183969      14      0.06461176      0.94457326     -0.21148228      1.34973005     -0.18728829     -0.89738105
Si              6.52751893     64.39263484      9.07713712      14     -0.00000000     -0.00277188     -0.00000000      0.25174781      0.21803486      0.08365119
Si             34.99861443     64.51498586      8.80119065      14     -0.05585010      0.98322669      1.93507719     -1.48027335     -0.00142515      0.06335930
Si             45.06856844     65.07282737      8.88139491      14      0.44616210     -0.78634629     -0.98845917      1.32975642     -0.60432137     -0.87306681
Si             63.52514768     63.09394295      9.20139893      14     -0.49693730      0.04498342     -0.06919819     -1.70127469      1.10881137      0.05488152
Si             39.87059279     63.56652660      8.83497879      14      0.28047723     -0.66665164      0.83457799     -0.02485763     -0.83682422     -0.16919331
Si             47.69701315     63.46109416      8.82787243      14     -0.50450115      1.33809080      0.75114047     -2.11675277     -0.07188157     -1.11387784
Si             50.57852976     64.04033475      8.75396307      14     -0.47312578      1.09183764      0.17043350     -0.35042238      2.65850918      0.07074554
Si             60.71988696     64.41078088      9.25087395      14      1.15721178     -0.19077531      0.57600571      1.36554340     -0.02858732     -0.52067257
Si             42.93670123     62.86270128      8.80699140      14      1.34921749     -0.95828337      1.38067713     -1.33501979     -0.47383971      0.19669886
Si             55.65705825     64.68659326      8.98105601      14      0.47143434      0.55767035     -0.66003149      2.43952887      1.25107429     -0.75630011
Si             12.90623150     64.87229290      9.10273917      14     -0.49278919      0.93095679      0.65624824     -0.24781080      0.56208764      1.12078632
Si             20.22952440     62.98699256      8.92237295      14      0.46622515     -1.67459465     -0.36824080      0.10696993     -0.78862029     -0.35969130
Si             58.10804148     62.94335669      8.98027718      14      0.33827965     -0.14417734      1.06452365     -0.95207932     -0.83326116      0.75711907
Si             11.44550322     62.16120783      9.14955013      14      1.08177432     -0.51332071      0.87804400      1.35614283     -0.81476203     -0.77417158
Si              8.42003350     62.07355144      9.13093089      14     -0.00000000     -0.67964263     -0.00000000     -0.62019844     -0.96859751     -0.05542610
Si             23.28132873     62.72716178      8.86294034      14      0.69889678     -0.35793068      0.33503319     -0.26559917     -0.60070996      0.59317340
Si             53.22139403     62.94965710      8.71957330      14     -0.55348557      1.54572706      0.29960007      2.58474448     -1.29749876      2.74963198
Si             25.20486616     60.60344829      8.89749222      14      1.33640178      0.04760169      1.19294783      0.78431649     -1.82801008     -0.05423425
Si             44.08512943     60.07897016      8.75271541      14     -1.01307060     -0.10637087     -0.64886560     -0.46746123     -0.11962449     -1.00402320
Si             47.01053448     60.46704440      8.73190254      14     -0.97134324     -0.30557407     -0.83988154     -1.25573382      0.46375748     -1.10074514
Si             35.08796430     61.51903278      8.93557239      14     -0.92506593      0.87261869      0.29685598      0.41460306     -0.20133052     -0.00299275
Si             15.94332846     59.14801068      9.09056726      14     -0.84489196      0.02856621     -0.09350262      1.08122433     -0.19408439     -0.60245073
Si             38.11395811     61.02969389      8.97504167      14      1.01306869      0.30145751      0.41427711      2.54996032      0.47832340     -0.75077542
Si             12.97971180     59.47201523      9.14356835      14     -0.45981974     -0.52632698     -0.49675919     -1.80103651      0.26858341      1.00598230
Si             18.76846759     60.27103977      8.97859405      14      0.07867927     -0.52931865     -0.13676842     -0.07241598      0.32962496      1.61131843
Si             64.82729566     60.32378943      9.01810782      14     -0.61196296      1.52320138      0.42565072      1.63335778     -0.10894928      0.49866752
Si              7.22141168     59.25759824      9.06432818      14      0.00000000      0.05742081      0.00000000     -0.42071617      2.19912079     -0.60731768
Si             30.03260792     59.41460858      8.86125100      14      0.80505177     -0.28381280      0.54824277     -0.61335420     -0.72226734      0.17348127
Si             33.08399599     59.29322893      8.80868363      14      0.53362891     -1.19297719     -0.33788387      0.58136694     -0.05221128     -1.63759181
Si             49.32382296     58.54909756      8.67186523      14      0.15297718      0.08009477     -0.24815277      1.99223173      0.17360905     -0.88000061
Si             62.95948569     57.82796814      8.89005432      14      1.29785990      0.15743426     -1.52944046      0.43758613      0.63113564     -0.66728054
Si             52.37518308     58.14330624      8.56886800      14      0.05778240     -0.30970642     -0.20037689     -1.89890248     -1.42319277      0.98703933
Si             54.62354986     60.06565246      8.82134318      14      0.37821067     -0.08443842      1.14492847      0.42146378      1.76946239     -0.06903019
Si             57.71663668     59.92136896      8.84672014      14      0.53931832      0.70097768     -1.02690251     -0.89623536      1.68289140      0.52005615
Si             59.99026339     57.83084284      8.78228546      14     -1.30550681     -0.35832411      0.00435297     -1.20660164     -0.34635927      1.12873709
Si             39.44192370     58.24062725      8.88381597      14      1.09889201     -0.08101109     -0.37079214     -1.29904919     -1.03811197      0.04810979
Si             25.42517006     57.55547665      8.82152413      14     -0.23439699      1.09012800      0.62631574      2.11608806     -0.87115579     -0.00816956
Si             42.36253343     57.44411376      8.61727433      14     -0.54783316      0.04860247     -0.92473238      0.15699161      2.74266182      2.00457593
Si             11.44777592     56.76026487      9.11939237      14      0.09631877     -0.13697648     -0.54530029      1.68075267      1.36583117      0.15224658
Si              8.41030825     56.56911668      9.13337781      14      0.00000000      0.73473149      0.00000000     -0.46623234     -0.53605394      0.02965995
Si             28.39699491     56.80228152      8.91329037      14      0.13367000     -1.19812519     -0.11697365     -0.44317524     -1.73100278      0.39244830
Si             22.72348489     56.12777300      8.84646291      14      1.36692275      0.27844650      0.87435372     -0.77573245     -0.74204265      1.86590162
Si             34.30146446     56.40468921      8.83392147      14      0.45506957     -0.88150827     -0.84615009     -0.36900418      0.31543657     -1.20454546
Si             37.26746431     56.02961658      8.92356004      14     -1.33166847      1.77290756     -0.08064866     -0.87231649     -0.53483947     -1.73765470
Si             64.39171053     55.08158757      8.77026550      14      0.11821226      1.04962311      1.26523685      0.09627160      0.07034894     -0.34771666
Si             17.27671559     56.36363005      8.99104780      14      2.14815820     -1.07694426      0.87354861     -1.30684641     -0.28766399      2.34503683
Si             49.07306000     55.54358963      8.70008220      14      0.16777445      0.70732474     -2.05385535     -0.73764944     -0.31639970      1.15765606
Si             52.04118063     55.13689992      8.65028174      14     -0.06497264      1.04049217      0.72381915      0.93439583      2.17096972     -0.34644405
Si              6.93978740     53.87367268      9.02020336      14     -0.00000000     -0.18681536     -0.00000000      0.73191330      1.42630669      0.37468518
Si             15.73397891     53.74236062      9.11484369      14     -0.63490181      0.30851240     -0.44714257      0.18290853      0.10650310      0.43993676
Si             53.88274591     52.82773109      8.50015328      14      0.46335214      1.21077922      0.68035436      2.62441972      0.84587703     -0.13017048
Si             59.46539392     54.80824367      8.60049928      14      1.07595893     -0.20586199      0.20153585     -1.32854215      0.73753718     -0.94715565
Si             12.68211321     53.97706132      9.22559707      14     -1.09773862     -0.70558797     -0.53271536      0.60903791     -0.37561162     -0.50772155
Si             56.94976152     53.16244400      8.59697988      14      0.91494025     -0.46075209     -1.78864032      0.49935107      2.77913293     -1.55246506
Si             29.56536660     53.94300310      8.81337783      14      0.01140222     -0.54717256      1.26764941      0.58280396      0.33498891      1.11650696
Si             32.62046584     53.77612077      8.76159843      14     -1.02948879      0.53746947     -0.28214218     -0.27540063     -0.31949327     -0.38742156
Si             43.70361720     54.68611175      8.68333978      14      0.22666719      0.11221986     -0.42390163      0.59188540      0.04624860     -0.42371575
Si             46.61506042     53.69444789      8.72006934      14     -0.14495409      0.16425841      0.72883285      0.75858558      0.34357987      0.41949822
Si             38.59193266     53.32897867      8.80952890      14      1.02611651     -0.72687917      0.86958286      1.20127110      0.33741281     -0.98629917
Si             41.49714722     52.54646889      8.63716188      14      0.28013414      2.02307169     -0.27618395     -0.30397018      1.99189140      1.74630977
Si             11.21906961     51.31033892      9.15946573      14     -0.20475357     -0.52047068     -0.47592173     -0.08951032      0.43802149      1.63045419
Si             22.69512530     53.08961844      8.74656948      14     -1.16059457      0.10904941      0.54755857     -0.39487346      0.21923409     -0.31953663
Si              8.25133567     51.27429447      8.97105580      14      0.00000000      0.68482833      0.00000000      1.26616975     -1.33586182     -0.60558264
Si             20.33605090     51.13121858      8.82604803      14     -1.22225703      0.83045973      0.66597417     -0.85766395     -1.29930486     -0.01766429
Si             61.98415054     53.13677772      8.71396616      14      0.47796026      0.97427777      0.43875076      0.64075790     -0.72535993     -1.24118021
Si             17.28443115     51.06351510      8.80965550      14     -0.37210218     -0.71590011     -0.95409074      0.80444580     -0.78053967      0.85697664
Si             24.97696383     51.06062633      8.70177797      14     -0.80923361      0.66954295      1.08998539     -1.32100893      0.69852567     -0.57779498
Si             62.65772243     50.14535870      8.57893520      14      0.75078963     -0.12978450     -1.09339481      0.87956712     -0.55801553     -0.05013667
Si             27.93814005     51.38128367      8.72778530      14     -0.21869450      1.32810321     -0.69726236      2.63723470      0.33689102      0.74912913
Si             34.02076782     51.09339397      8.64280960      14     -0.11996475     -1.68906374     -1.07131339     -0.87191922      0.60403704      1.34520459
Si             36.98456738     50.67229053      8.64875823      14      1.21583168      0.66326535      1.05053210      0.09788606     -0.01602734      0.73661128
Si             47.33666749     50.72597948      8.65519737      14     -0.29666717      0.87684859      0.34463722      0.12742580     -0.14391340     -0.78459725
Si             49.95741984     49.27897395      8.60134921      14     -0.08114368     -0.33972308      0.09903193      0.10676385      0.08601210     -1.04260742
Si             41.94868469     49.57799584      8.70558195      14      0.62459378     -0.68266359     -2.05757155     -0.46821240      0.00073718     -0.41106787
Si             52.91972783     49.98073481      8.58982342      14     -0.20541527      0.48503805      1.54266299      2.20265480      0.24818758     -0.91363360
O             221.52130840     10.20398257      5.36735124       8      0.53793990      0.11449873     -0.17365779      0.45564308     -0.42465462     -0.20195979
Si             44.90772690     48.77962751      8.64892342      14      0.40262578     -0.06972096     -0.59806749     -1.31951617     -0.72281856     -0.21271581
Si             55.51373727     48.49306542      8.49925461      14      0.72940409      1.10884081     -1.18752436      0.29072589      0.30656105      1.22095768
Si             57.70994514     50.51799064      8.53709608      14     -0.25823629      0.24392803      1.08937891      0.77266610      0.88914692     -0.40537809
Si             12.44521818     48.48634873      9.19233571      14     -0.64914836      0.72239074      0.66012676      0.60689792      0.71969707     -0.25531024
Si             15.32965129     48.95210243      8.40985599      14      1.00465400      0.37757800      0.38751750     -1.01581135     -1.62229895     -0.34224102
Si             29.70880075     48.86254631      8.49622631      14      0.50804674     -1.22991978      1.20255661     -1.36149013      1.90752633      1.58135403
Si             32.61311534     48.41442228      8.67158198      14      0.59311311      0.87413912     -0.07098601     -1.24074569      2.48666604     -0.15976587
Si             58.29324965     47.86122078      8.48401218      14     -0.02128800      0.64325938      1.48535425     -0.09865698     -0.40051465     -0.46059532
Si             22.65263512     49.28957170      8.62818481      14      1.23643403      1.31404441     -1.75928279     -0.14894366      0.08934283      1.04453563
Si             39.14640350     48.46467085      8.62280549      14     -0.20565351      0.27055395     -0.03098536      1.18761048     -0.73658553      0.22557020
Si             61.17540353     47.51727387      8.34020822      14     -0.17433714     -1.48630522     -0.32119553     -0.68015374      0.34529369      0.79219253
Si             16.98660315     39.46047219      9.10001216      14     -1.35203612      0.17586173      0.17718379     -0.70275989      1.11369097      1.53502246
O             226.66425095      8.78993343      5.29721583       8     -0.93704161      0.45795839     -0.47244640      0.42895871     -0.14395963     -1.20114290
Si              9.00524762     38.26444049      9.16786905      14      0.00000000      0.45534702      0.00000000     -0.10562863      0.46825208     -0.03350653
Si             46.64667510     46.36394730      8.15198622      14      0.26652861     -0.36425313      1.68252807      1.72297004     -0.90851714     -0.50331346
Si             49.62180732     46.08891295      8.49066834      14     -0.52961617     -0.07947767     -0.84253085     -1.02696518     -1.11034091      0.13028660
Si             11.80399829     39.23206869      8.91203932      14      1.06774212      0.24245514      0.88661958      0.27431575     -0.02486378      1.51832441
Si             34.84767741     46.54473529      8.50801231      14     -1.29869321     -0.19485725      0.72640993     -0.14119582      0.10104984     -0.99707770
Si             63.78921064     46.35396265      7.94401881      14      0.39318783      0.57372516      0.63865278     -1.11835993     -1.41235909     -1.26760661
Si             14.40337872     37.74617504      9.13047454      14     -1.02260401     -2.15559060      0.68126257     -0.58746686      0.67845185     -1.38989085
Si             37.17826569     46.47504480      8.40700611      14      0.60478494      0.52105969     -0.68609502      0.75085931     -1.03195028     -0.83857182
Si             22.20973717     39.32997224      8.86209349      14     -0.09193348      1.60449954     -0.84295615     -0.30333856      0.40645475      1.04491392
Si             24.94160010     37.93301740      9.03597500      14      1.20108090     -0.48221895     -0.98031155      0.38106916     -1.53773460     -1.46391769
Si             27.83960464     38.99410125      9.12063610      14      0.30020981     -0.03166714      1.12370889      0.09729746      1.04013106     -0.02442156
Si             55.45058092     38.52732296      9.09417768      14      0.08218035      0.13978287     -0.56545170      2.10838141      0.69855485     -0.94629056
Si             19.51018522     37.72291241      8.88476943      14     -0.88273280      0.37332890      0.51794220      0.68864464      1.71275294      0.59406166
Si             57.94368261     38.03319060      8.85196808      14     -0.09334299     -0.65587415      0.95375837     -0.63085151      0.65994480     -0.55608935
Si             48.21114653     35.85862793      9.23681074      14     -1.33654439      0.53793106     -1.36936742     -0.27183057      1.30138547     -1.29372274
Si             51.08182133     34.94988865      9.42532831      14     -0.24262768     -0.09071775      0.76986076     -2.08110076      0.00150288      1.67078248
Si             42.89522584     36.51920015      9.71168543      14     -0.94331979      0.08232172     -1.23450074      0.07702136     -0.67813322     -1.36292884
Si             32.20363705     35.63705817      8.91623857      14     -0.81892283      0.11624875     -0.68599047     -0.02668108     -0.18368613     -1.29064668
Si             40.40219524     34.57286512      9.40371546      14     -0.49001043      1.32281517     -0.03221761      0.17955594     -0.78222109     -1.02116593
Si             29.41094355     36.24785279      9.19626553      14      1.07263765      1.17079831     -0.12377274     -0.37488192      0.67177316      0.52138572
Si             53.83047290     36.06519778      9.48373937      14      0.53390758     -0.18018309      1.03041345      0.07973904     -0.01275840     -0.33086045
Si             34.79152574     34.27263885      9.26870759      14     -0.23806820      0.48903544      0.07626410      0.23774255      0.17688675     -0.76341052
Si             37.54268679     35.50600152      9.29491789      14      1.22680478     -0.53830663      0.36628536      0.13143765     -1.27875310      0.76664220
Si              9.14697468     35.35728714      9.10005951      14      0.00000000      1.31283104      0.00000000     -2.04880643     -1.23292159     -0.62521506
Si             14.20680535     34.75229991      9.07089319      14     -0.26165041     -0.46434559      0.64665026     -1.23913390     -1.19920063     -0.62153838
Si             22.14573001     33.38934462      9.01605437      14      0.52455152      1.88596485     -0.65258847      0.36993768      0.43936266     -0.42947871
Si             45.50828046     34.79037256      9.35608484      14     -0.70568944      0.06856789      0.19172807     -0.11467385     -0.72349171      1.98757510