7631
energy=-145788.22249796 n_efield_old=3 cutoff=10.58354498 nneightol=1.20000000 pbc="T T T" Lattice="255.37853149       0.00000000       0.00000000       0.00000000      82.43324632       0.00000000       0.00000000       0.00000000      19.87617225" Properties=species:S:1:pos:R:3:Z:I:1:momenta:R:3:map_shift:I:3:n_neighb:I:1:force:R:3:charge:R:1:fixdip:L:1:efield:R:3:dipoles:R:3:efield_old1:R:3:efield_old2:R:3:efield_old3:R:3
Si            103.38182370     77.12009755      8.98362812      14      1.15248496     -1.03033438     -0.56449526       0      -1       0      84      0.45713997      0.70280926     -0.27101155      2.85911880    F     -0.01164863     -3.63676346     -0.80522433      0.00000000      0.00000000      0.00000000      0.31773724     -2.52081260      0.14500132      0.31773724     -2.52081260      0.14500132      0.29503385     -2.48350460      0.14787619
Si              8.79521582     77.61540813      9.08693597      14     -0.00000000     -0.10754135     -0.00000000       0      -1       0      52     -0.20303155     -0.52504856     -0.14400415      2.85911880    F      2.17765328     -4.07077895     -2.11925554      0.00000000      0.00000000      0.00000000      0.51868231     -1.89613987     -0.37474822      0.51868231     -1.89613987     -0.37474822      0.53997824     -1.87672977     -0.36940371
Si             11.85454015     77.38466140      9.12262194      14      0.02941732      0.05613092      0.17104062       0      -1       0      66     -1.35253363      1.71631494      0.03278750      2.85911880    F     -1.36228144     -4.13765312     -1.84685550      0.00000000      0.00000000      0.00000000     -0.38774436     -2.20063454     -0.27586898     -0.38774436     -2.20063454     -0.27586898     -0.38056851     -2.20961241     -0.25324598
Si             31.18638146     78.28009219      9.41403303      14     -0.85174144      0.00111939     -0.97036167       0      -1       0      75      0.88670622      0.64765299     -1.25620856      2.85911880    F     -0.96284818     -3.10343675     -0.97854855      0.00000000      0.00000000      0.00000000      0.01036687     -1.62347281     -0.65577500      0.01036687     -1.62347281     -0.65577500      0.04815918     -1.66605131     -0.63327514
Si             28.26178651     78.85152436      9.29617273      14     -0.17431950      2.43305247     -1.05744648       0      -1       0      73      0.48065108     -0.40304804     -0.48524093      2.85911880    F      0.38817267     -3.97475204     -1.49241124      0.00000000      0.00000000      0.00000000     -0.60225107     -1.30162206     -0.79892584     -0.60225107     -1.30162206     -0.79892584     -0.61551814     -1.33944581     -0.78438911
Si            100.39481251     77.73925672      8.97902726      14     -0.94964286      0.03363359      0.39132188       0      -1       0      88      0.25453121      0.18644355     -1.77502488      2.85911880    F      0.33899996     -4.97714347     -1.25447780      0.00000000      0.00000000      0.00000000     -0.26229763     -2.03038643      0.00911781     -0.26229763     -2.03038643      0.00911781     -0.28856485     -2.02019363      0.02496527
Si             96.12568924     74.38033221      8.92129695      14     -0.49714142     -1.10291327     -0.59066157       0      -1       0     118      0.03145882     -0.44220603      0.05775390      2.85911880    F      0.32731066     -1.22580855     -1.11409905      0.00000000      0.00000000      0.00000000     -0.17615206     -1.43569284     -1.07544946     -0.17615206     -1.43569284     -1.07544946     -0.11896568     -1.43344278     -1.10129310
Si             48.94190267     77.20614002      9.29836385      14      0.67409382     -1.04895183     -0.02705220       0      -1       0      86      1.40569666      0.81129635     -2.17691080      2.85911880    F     -0.56403627     -3.94734625     -0.86504659      0.00000000      0.00000000      0.00000000     -0.50941064     -2.26041900     -0.14245424     -0.50941064     -2.26041900     -0.14245424     -0.49805087     -2.24272565     -0.16568300
Si             93.71841715     75.97805207      8.83443733      14      0.36643380     -1.50688822     -0.57195530       0      -1       0      99      0.89993805      1.11847845     -0.37055835      2.85911880    F     -0.11137950     -2.50032956     -0.15629813      0.00000000      0.00000000      0.00000000      0.64012802     -1.82659030     -0.42340859      0.64012802     -1.82659030     -0.42340859      0.62052699     -1.80216256     -0.40687319
Si             99.17115557     75.07649372      8.80799314      14      1.11565506      0.62757769      0.89127731       0      -1       0     103      0.71027660     -0.94101237      0.71822309      2.85911880    F     -0.07629240     -0.67094210     -1.24694318      0.00000000      0.00000000      0.00000000      0.12926537     -1.54215479     -1.82321198      0.12926537     -1.54215479     -1.82321198      0.11190699     -1.57452488     -1.84979034
Si            110.35361144     75.36843183      8.96564951      14      0.18975073      1.02498940     -1.56975028       0      -1       0     101     -0.59375787     -0.42373892     -0.54200137      2.85911880    F      0.32628583     -3.97809995     -0.60521830      0.00000000      0.00000000      0.00000000     -0.30940285     -2.04186795     -0.72706108     -0.30940285     -2.04186795     -0.72706108     -0.35009628     -2.07849640     -0.70208179
Si            113.38630900     75.48025789      8.95285386      14     -0.42704012     -1.39980205     -0.40753257       0      -1       0      93     -0.33951313      1.46486154     -1.94604271      2.85911880    F      0.72594268     -3.11834524     -1.01897753      0.00000000      0.00000000      0.00000000      0.56485943     -1.49962082     -0.78174875      0.56485943     -1.49962082     -0.78174875      0.59302305     -1.51185054     -0.78927938
Si            123.13176259     75.99911765      8.98051563      14      0.31485553     -0.55624585      0.78570069       0      -1       0      86      0.90956457     -1.16135414     -0.68678222      2.85911880    F     -0.03815978     -3.85909552     -1.21117094      0.00000000      0.00000000      0.00000000      0.77490419     -1.75656374     -0.49551332      0.77490419     -1.75656374     -0.49551332      0.73277157     -1.72948011     -0.52183912
Si             22.19607110     73.15766038      9.20384380      14     -0.34340231      0.07930628      0.76558438       0      -1       0     130     -0.55527615      0.31099115      0.37527063      2.85911880    F     -0.63849911      1.73849336     -1.07291117      0.00000000      0.00000000      0.00000000     -0.67615171      1.01964594     -0.60385883     -0.67615171      1.01964594     -0.60385883     -0.69724745      1.01800069     -0.62484033
Si             23.92684734     75.40192382      9.04611376      14     -0.00356045      1.25171247      0.19866964       0      -1       0     120     -3.41253559     -3.51949659     -0.35876954      2.85911880    F      2.51095114     -0.98837748     -0.51523848      0.00000000      0.00000000      0.00000000      0.39096197     -0.95532795     -0.61856721      0.39096197     -0.95532795     -0.61856721      0.35439806     -1.00918983     -0.59171700
Si             57.23396276     76.28856139      9.35018591      14     -1.33076798      0.77813324      1.25200684       0      -1       0      96     -0.82861561      1.43722351     -1.73029941      2.85911880    F     -0.55132741     -4.71912750     -1.43672503      0.00000000      0.00000000      0.00000000     -0.06423675     -2.48346817     -0.45335102     -0.06423675     -2.48346817     -0.45335102     -0.03455935     -2.51174637     -0.45939458
Si             64.37802229     76.09557655      9.13002264      14      1.08184813      0.08105841     -0.24059113       0      -1       0     102      1.04059124      0.67935043      0.40549137      2.85911880    F      0.04543474     -3.59764555     -0.95919297      0.00000000      0.00000000      0.00000000     -0.22054712     -1.95869043     -0.07146370     -0.22054712     -1.95869043     -0.07146370     -0.21695212     -1.98529097     -0.03928121
Si             67.36476524     76.20385443      9.18213598      14     -0.52444309     -0.27351082     -0.77113735       0      -1       0      99      1.75043717     -0.21222637      1.12036797      2.85911880    F      0.63879597     -1.40325646     -1.68483857      0.00000000      0.00000000      0.00000000      0.09944363     -1.30623340     -1.16612073      0.09944363     -1.30623340     -1.16612073      0.11163250     -1.34676764     -1.19008333
Si             69.53850377     78.18224281      9.15941743      14      0.96609339     -0.13596631      0.50227997       0      -1       0      74     -1.21515864      0.00100514      0.41490151      2.85911880    F     -1.58640948     -3.68207465     -1.45097936      0.00000000      0.00000000      0.00000000     -1.37164306     -1.70509855     -0.16103007     -1.37164306     -1.70509855     -0.16103007     -1.37681330     -1.70818515     -0.15947582
Si             72.11550833     76.63038476      9.19503913      14      0.46735440      0.77419222     -0.13439512       0      -1       0      97     -0.32335752      1.56534720     -1.79927289      2.85911880    F      0.03159835     -3.11950578     -1.21308523      0.00000000      0.00000000      0.00000000      0.38499343     -1.90084113     -0.17592406      0.38499343     -1.90084113     -0.17592406      0.40226334     -1.92426579     -0.15316312
Si             26.71336512     76.33362467      9.29529597      14     -0.61607120      0.18538403     -1.83074145       0      -1       0     105      0.10557487     -1.62282679     -0.79462561      2.85911880    F      0.86208996     -1.91579968     -1.82929405      0.00000000      0.00000000      0.00000000      0.58944328     -1.78465873     -0.94425444      0.58944328     -1.78465873     -0.94425444      0.60639364     -1.79511418     -0.88683029
Si             54.34335617     77.17713196      9.32915936      14      1.33467750     -0.55723929     -0.10759177       0      -1       0      93     -1.04777613     -0.85713914     -0.00021018      2.85911880    F     -0.82430822     -2.34345351     -1.77997091      0.00000000      0.00000000      0.00000000     -0.49051979     -0.98953954     -0.35429146     -0.49051979     -0.98953954     -0.35429146     -0.48775689     -1.01657102     -0.34561587
Si            127.72209795     72.57305990      9.03189850      14     -0.12852934     -1.27396052     -0.35702423      -1      -1       0     116      3.01803979     -0.12172247     -0.47975273      2.85911880    F     -0.21091689     -0.98118216     -1.44845232      0.00000000      0.00000000      0.00000000      0.04866700     -0.87995960     -1.00079677      0.04866700     -0.87995960     -1.00079677      0.03742699     -0.86589428     -0.97822857
Si             51.58267799     75.81608138      9.33608969      14     -0.25546594      0.71637337      0.09201266       0      -1       0     103      0.41510237     -0.51084696     -0.23522545      2.85911880    F     -0.35397051     -2.12307817     -1.39462686      0.00000000      0.00000000      0.00000000     -0.39847522     -2.52033816     -1.22962900     -0.39847522     -2.52033816     -1.22962900     -0.37057913     -2.52507388     -1.22995717
Si             76.39392559     73.76486008      9.09036889      14      0.01516905      0.19209825      0.32444121       0      -1       0     118     -0.34244693     -0.91139986     -0.14358980      2.85911880    F      0.26216158     -1.16696790     -1.07166418      0.00000000      0.00000000      0.00000000      0.45510786     -1.74308251     -0.89891780      0.45510786     -1.74308250     -0.89891780      0.42802654     -1.80406109     -0.90161345
Si             78.33289254     76.07141702      8.94566428      14     -0.68871611     -0.50396663     -0.36756964       0      -1       0      99     -0.92014164     -0.51359741      0.98103015      2.85911880    F     -0.95081728     -2.92247944     -1.37505989      0.00000000      0.00000000      0.00000000     -0.93419083     -1.91227401     -1.00575212     -0.93419083     -1.91227401     -1.00575212     -0.91051316     -1.87830205     -0.98036866
Si             81.34544524     75.73037970      9.07191673      14      0.38701368     -1.09483911      0.49183817       0      -1       0      92      0.38306655      0.04420333     -0.31740573      2.85911880    F      0.68145435     -3.09031338     -1.94706728      0.00000000      0.00000000      0.00000000      0.46054760     -1.89972913     -0.34880443      0.46054760     -1.89972913     -0.34880443      0.44276126     -1.87892555     -0.33267154
Si            118.51620249     73.11319371      8.94822191      14     -0.35424473     -1.32672196      0.36013424       0      -1       0     112      1.05431920     -0.89156410      0.46281380      2.85911880    F     -0.28276572     -0.89576930     -1.56451722      0.00000000      0.00000000      0.00000000     -0.07299220     -1.31849221     -2.08026766     -0.07299220     -1.31849221     -2.08026766     -0.05418395     -1.25537501     -2.10919957
Si            120.15354390     75.69739883      8.95242737      14      1.21339044     -0.47497250      1.18727744       0      -1       0      86     -2.42931825     -2.86117420      1.59520319      2.85911880    F      0.65755438     -2.94888485     -1.28798015      0.00000000      0.00000000      0.00000000     -0.18967567     -1.78652489     -0.28712392     -0.18967567     -1.78652489     -0.28712392     -0.22166926     -1.81283636     -0.29384644
Si             32.49275486     75.62728455      9.40912795      14      0.31184493     -0.22739291     -1.09257342       0      -1       0     101     -1.27391327     -2.04563241      0.56496603      2.85911880    F     -0.55756200     -1.02898703     -1.62182223      0.00000000      0.00000000      0.00000000     -0.34870704     -1.93488586     -1.70332537     -0.34870704     -1.93488586     -1.70332537     -0.35797383     -1.91955993     -1.69025366
Si             35.51590286     75.18804202      9.22028062      14      0.19590076     -1.79252934      0.41739474       0      -1       0     101     -0.53929425      0.85224998      0.57315763      2.85911880    F     -0.82387706     -3.21436869     -0.97719147      0.00000000      0.00000000      0.00000000     -0.25578101     -2.04751300     -0.67941080     -0.25578101     -2.04751300     -0.67941080     -0.31086771     -1.98887977     -0.68139821
Si             60.50943569     72.07378791      9.17557992      14      0.30763653      1.26770256     -0.56832942       0      -1       0     137     -0.77557220      0.33469901      0.97690593      2.85911880    F      0.42908109     -0.59970856     -1.37824811      0.00000000      0.00000000      0.00000000      0.47588336     -0.29139984     -0.36288371      0.47588336     -0.29139984     -0.36288371      0.48614782     -0.36730476     -0.32618014
Si             88.10650826     75.10120057      8.81617283      14     -0.70230776     -1.54452912     -0.18314135       0      -1       0      98      2.92602713      0.01184284      0.98993934      2.85911880    F     -0.50537948     -2.89320908     -1.02662345      0.00000000      0.00000000      0.00000000     -0.51646014     -1.53171454     -0.29904088     -0.51646014     -1.53171455     -0.29904088     -0.49113022     -1.51562094     -0.29852002
Si            106.14722809     72.00288721      9.05099079      14     -0.94103941      0.66135982     -0.17086701       0      -1       0     132      1.15058648      0.70908076     -1.34968508      2.85911880    F     -0.04483738     -0.83219841     -1.66857866      0.00000000      0.00000000      0.00000000     -0.16727576     -0.83288207     -0.42725215     -0.16727576     -0.83288207     -0.42725215     -0.13154395     -0.84216881     -0.42206888
Si             16.61163702     74.83575836      9.33143499      14      0.32915213      1.05337094     -0.49625716       0      -1       0     107     -1.58624371     -0.55197712      0.54036765      2.85911880    F      0.24903773     -3.13133414     -1.17891570      0.00000000      0.00000000      0.00000000      0.31676168     -1.71127711     -0.32697328      0.31676168     -1.71127711     -0.32697328      0.30844013     -1.71653659     -0.30419400
Si             43.79187481     75.13891128      9.30256568      14     -0.65651418     -0.56375207      0.52083910       0      -1       0     104     -1.57847993     -0.16360985     -1.65646383      2.85911880    F      1.56023838     -3.14361759     -0.97205687      0.00000000      0.00000000      0.00000000      0.21857558     -1.78660392     -0.02228114      0.21857558     -1.78660392     -0.02228114      0.15447955     -1.81170686     -0.02383588
Si             46.71058256     75.24542303      9.26747009      14      1.52249883     -0.98719137     -0.85274741       0      -1       0     106      0.48144076      1.93784039     -0.88111637      2.85911880    F      0.66261746     -2.28472636     -1.37088759      0.00000000      0.00000000      0.00000000      0.92502607     -2.39667434     -1.00241654      0.92502607     -2.39667434     -1.00241654      0.92218486     -2.36807545     -0.97781668
Si             83.00894215     73.27249235      9.03656946      14     -0.82642737     -0.49122142      0.99210304       0      -1       0     114      2.39488177     -0.08907013     -1.49543341      2.85911880    F     -0.77158343     -1.92919349     -1.00969795      0.00000000      0.00000000      0.00000000     -1.03491937     -1.95150855     -0.86992127     -1.03491937     -1.95150855     -0.86992127     -1.01621735     -1.91103335     -0.88086806
Si             91.06041878     74.60345421      8.98209881      14     -0.12300564     -1.19994521      0.02146373       0      -1       0     110      0.11133119     -2.04978988      0.11364552      2.85911880    F      0.42844503     -1.70262668     -1.60944148      0.00000000      0.00000000      0.00000000      0.65367185     -1.31438258     -1.13873998      0.65367185     -1.31438258     -1.13873998      0.60986988     -1.32931814     -1.15671056
Si            101.21499133     72.81042155      8.99853995      14      1.44578168      0.93642340      0.54539455       0      -1       0     129      1.80778043      1.03961099      0.87163292      2.85911880    F      0.70641259     -0.23871257     -2.12722108      0.00000000      0.00000000      0.00000000      0.33861032     -1.14775294     -1.14847152      0.33861032     -1.14775294     -1.14847152      0.29882395     -1.19300523     -1.15608661
Si            103.99218781     74.26259613      8.97843173      14     -0.33035963      0.20394896     -0.08010753       0      -1       0     108      1.82454631      0.47401406      0.14184055      2.85911880    F     -1.63636521     -1.48374088     -1.66842143      0.00000000      0.00000000      0.00000000     -1.16498105     -1.88738796     -1.27172023     -1.16498105     -1.88738796     -1.27172023     -1.16550566     -1.86626051     -1.27256256
Si            109.15866173     72.68901203      9.03852774      14     -1.17467953     -1.08890965      0.74872391       0      -1       0     112     -1.43385123      1.24723461     -1.45934792      2.85911880    F     -0.01642069     -1.69220826     -0.64154207      0.00000000      0.00000000      0.00000000     -0.32372091     -1.51912766     -1.40410885     -0.32372091     -1.51912766     -1.40410885     -0.28857058     -1.48712115     -1.48297857
Si             14.36325111     72.85406224      9.21070985      14      0.00835517     -0.57909929     -0.37558203       0      -1       0     128     -1.58157061      0.18780682      1.66219796      2.85911880    F      0.46280510     -0.75192968     -1.72134188      0.00000000      0.00000000      0.00000000      0.50352014     -1.50164241     -1.44169180      0.50352014     -1.50164241     -1.44169180      0.45385225     -1.50941784     -1.40256907
Si             19.37508888     73.91367506      9.27891073      14      0.78713166     -0.56216962      0.69902141       0      -1       0     122      1.08288206     -0.49408217     -1.22306197      2.85911880    F      1.04326135     -1.83742727     -1.72388286      0.00000000      0.00000000      0.00000000      1.18674209     -0.98096778     -0.60885546      1.18674209     -0.98096778     -0.60885546      1.18770062     -0.97897864     -0.58952202
Si             63.10523022     73.50099012      9.10726080      14     -1.07369607      1.14704040     -0.13125651       0      -1       0     127     -0.63139429     -1.06176756      1.19869005      2.85911880    F      0.16630392     -1.13834556     -1.00682638      0.00000000      0.00000000      0.00000000      0.75439123     -1.48503968     -1.11723098      0.75439123     -1.48503968     -1.11723098      0.75854870     -1.46326959     -1.09785227
Si              8.73781169     74.59391560      9.18952026      14     -0.00000000     -0.99520003     -0.00000000       0      -1       0      72     -0.71795302      0.45050904     -0.28941750      2.85911880    F      1.43566605      0.19220621     -1.73970740      0.00000000      0.00000000      0.00000000      1.25145619     -0.45653024     -1.34735722      1.25145618     -0.45653024     -1.34735722      1.26167734     -0.46167440     -1.34126557
Si             68.34640520     73.36251228      9.30371013      14      1.15577819      0.71417780     -0.66539680       0      -1       0     120      1.98930263      1.89321103     -2.89553564      2.85911880    F     -0.44776278     -0.57699011     -0.75441414      0.00000000      0.00000000      0.00000000     -0.26143514     -1.22355177     -0.53840937     -0.26143514     -1.22355177     -0.53840937     -0.29442292     -1.16742959     -0.52846390
Si             73.30051291     73.87258353      9.14820327      14      0.64152004      0.21340718      0.23384607       0      -1       0     123      0.73342332     -1.69988060     -0.02567667      2.85911880    F     -0.53332154     -1.48486911     -0.88340918      0.00000000      0.00000000      0.00000000     -0.47105177     -1.97514004     -1.50357913     -0.47105177     -1.97514004     -1.50357913     -0.47908526     -1.98281901     -1.47943536
Si            115.37387209     73.20358425      8.96047340      14      0.63972175     -0.56668889     -1.33047084       0      -1       0     110      1.42170813      0.00429406      0.28271757      2.85911880    F      0.15076727     -1.82145402     -1.91234688      0.00000000      0.00000000      0.00000000      0.71616161     -1.51936792     -1.54248784      0.71616161     -1.51936792     -1.54248784      0.71359455     -1.45106482     -1.54568959
Si            120.08318893     70.45189342      8.93511516      14      1.14187996      0.96689664     -1.75889841       0      -1       0     142      0.18134811     -1.29395580      0.17724567      2.85911880    F      1.06823914     -0.24338217     -1.48468484      0.00000000      0.00000000      0.00000000      0.59948775     -0.82895204     -0.89921314      0.59948775     -0.82895204     -0.89921314      0.59494846     -0.81870615     -0.86616479
Si             92.26225042     71.65436792      8.98857422      14      0.89665848     -1.10399406      0.24284869       0      -1       0     135      0.24660287      1.04480043      1.67847690      2.85911880    F     -0.45860811     -1.39506492     -0.88024312      0.00000000      0.00000000      0.00000000      0.18123646     -1.84320087     -0.48274500      0.18123646     -1.84320087     -0.48274500      0.10862254     -1.84998622     -0.49140810
Si             11.78055609     74.44164892      9.26068448      14      0.35751151     -0.63469149     -1.16974709       0      -1       0      92      0.28839715     -0.95019916     -1.25282631      2.85911880    F      0.28999824     -0.71501786     -1.61670902      0.00000000      0.00000000      0.00000000      0.27201138     -1.01196779     -0.85063091      0.27201138     -1.01196779     -0.85063091      0.25482721     -0.99619022     -0.82667958
Si             44.84953187     70.82934191      9.14691209      14     -1.51081644     -1.00149692      0.50396566       0      -1       0     145      0.86841044     -0.69552996     -0.14878708      2.85911880    F      0.61054637     -0.16875916     -0.97758131      0.00000000      0.00000000      0.00000000      0.72883775     -0.70610419     -0.80892042      0.72883775     -0.70610419     -0.80892042      0.72723723     -0.65007655     -0.81335124
Si             86.06692226     72.98139419      8.92215542      14     -0.30976549      0.06112943      0.34942188       0      -1       0     127      0.81885531     -1.69511814     -1.46150809      2.85911880    F      0.13349788     -0.84682443     -1.19039016      0.00000000      0.00000000      0.00000000     -0.25609794     -1.24035567     -0.91209918     -0.25609794     -1.24035567     -0.91209918     -0.23205731     -1.24337029     -0.90943551
Si             27.88065279     73.44572328      9.14671459      14      1.41311051      0.51080294     -0.74773103       0      -1       0     126     -1.06143163      0.82907415     -0.98139360      2.85911880    F      0.32152559     -0.77523769     -0.88240328      0.00000000      0.00000000      0.00000000      0.20549676     -1.25537229     -0.96977167      0.20549676     -1.25537229     -0.96977167      0.15834153     -1.27952614     -0.97712961
Si             39.54335229     71.60478814      9.15626389      14      0.07605820      0.88700268     -0.40307644       0      -1       0     130     -0.85181138     -1.62929406      0.51044947      2.85911880    F      0.55147204     -0.97887653     -0.69741959      0.00000000      0.00000000      0.00000000     -0.14709689     -0.72974512     -1.68611950     -0.14709689     -0.72974512     -1.68611950     -0.13485998     -0.75949653     -1.65223287
Si            123.22470517     70.68140585      9.17340978      14     -0.29530591      0.42545260      1.04375073       0      -1       0     141     -0.30123504      1.31079037     -1.69086973      2.85911880    F     -0.40090827     -0.54497860     -2.03013282      0.00000000      0.00000000      0.00000000     -0.33583116     -1.03815180     -0.35001876     -0.33583116     -1.03815180     -0.35001876     -0.32181644     -1.04965626     -0.36882919
Si              6.37623565     72.76444069      9.10354784      14      0.00000000      0.10564961      0.00000000       0      -1       0      71      0.39835454      0.87564279     -0.04772845      2.85911880    F      3.27499466     -0.50801066     -1.41274010      0.00000000      0.00000000      0.00000000      1.33122660      0.12646075     -0.72897671      1.33122660      0.12646075     -0.72897671      1.32399250      0.13809491     -0.73989638
Si             30.92925824     73.09968512      9.24682261      14     -0.20093070     -1.64390630      0.40413884       0      -1       0     135     -0.63404091     -0.06261754      0.19993654      2.85911880    F      0.12779993     -0.42731613     -1.14595744      0.00000000      0.00000000      0.00000000     -0.02225074     -0.28142015     -1.92138887     -0.02225074     -0.28142015     -1.92138887     -0.00504227     -0.29304214     -1.91847305
Si             36.72622172     72.47736609      9.26624476      14      0.77914258     -1.11515029     -1.80606410       0      -1       0     130     -3.16250468      1.23351965     -0.78259353      2.85911880    F      0.76120953     -1.65755348     -0.50089284      0.00000000      0.00000000      0.00000000      0.48212791     -1.42232397     -1.55799639      0.48212791     -1.42232397     -1.55799639      0.46644163     -1.46867252     -1.53869526
Si             42.31454751     72.46369736      9.20962928      14     -0.28165722     -0.88149620      1.26760080       0      -1       0     130      0.16226443      1.62496919     -1.11803936      2.85911880    F     -0.24128201     -1.29407720     -1.01364265      0.00000000      0.00000000      0.00000000     -0.94516497     -1.23751450     -1.07936256     -0.94516497     -1.23751450     -1.07936256     -0.90589226     -1.25249217     -1.08635040
Si             23.11441081     70.43543816      9.08475286      14      0.26848128     -0.69736328     -0.02637111       0      -1       0     151     -0.24892134     -1.16459715      0.16262324      2.85911880    F      1.33607653     -0.71089965     -1.10837678      0.00000000      0.00000000      0.00000000      1.40466229     -0.30236398      0.00901386      1.40466229     -0.30236398      0.00901386      1.40542902     -0.28886798     -0.00464981
Si             52.09743928     72.83681768      9.20828219      14     -0.38280510      0.33569903      0.69173979       0      -1       0     132     -0.90405097      0.27885743      0.11004854      2.85911880    F      0.47439622     -1.07414110     -1.12125295      0.00000000      0.00000000      0.00000000      0.25462683     -1.16017512     -0.60209302      0.25462683     -1.16017512     -0.60209302      0.33395488     -1.12308145     -0.62739925
Si             54.92850744     71.97441066      9.24277887      14     -0.74211967     -1.23237809      0.76305477       0      -1       0     133      1.32751698      1.70856881     -1.47469549      2.85911880    F     -0.59829155     -1.06962405     -0.81220796      0.00000000      0.00000000      0.00000000     -0.37339936     -1.41930868     -0.03457051     -0.37339936     -1.41930868     -0.03457051     -0.34441136     -1.40222960     -0.07368785