7907
OrigWidth=248.62410964 OrigHeight=67.43324632 cell_origin="-131.81205482    -41.21662316     -9.93808612" strain=0.10000000 is_cracked=F n_efield_old=3 energy=-151221.57950644 cutoff=10.58354498 nneightol=1.20000000 pbc="T T T" Lattice="263.62410964       0.00000000       0.00000000       0.00000000      82.43324632       0.00000000       0.00000000       0.00000000      19.87617225" Properties=species:S:1:pos:R:3:Z:I:1:dipoles:R:3:clamp_mask:I:1:pos_orig:R:3:orig_index:I:1:map_shift:I:3:n_neighb:I:1:force:R:3:charge:R:1:fixdip:L:1:efield:R:3:efield_old1:R:3:efield_old2:R:3:efield_old3:R:3
Si             35.53763754     78.08776042      8.92177201      14      0.00000000      0.00000000      0.00000000       1     35.53659441     78.08586401      8.92185886       0       0      -1       0      89      0.00121574      0.00216697     -0.00031143      2.85911880    F     -0.80906276     -4.19273248     -1.03244826      0.20027942     -2.43688151     -0.15929311      0.20027942     -2.43688151     -0.15929311      0.20027539     -2.43685224     -0.15928699
Si             32.48551776     78.29343679      8.92890506      14      0.00000000      0.00000000      0.00000000       1     32.48424600     78.29318823      8.92875677       1       0      -1       0      88      0.00113968      0.00004859      0.00002956      2.85911880    F      0.03047862     -3.89124371     -1.10921997     -0.61836922     -1.98825100     -0.24328471     -0.61836922     -1.98825100     -0.24328471     -0.61836466     -1.98823686     -0.24327261
Si             28.04688753     75.06008335      9.02258534      14      0.00000000      0.00000000      0.00000000       1     28.04553967     75.05870265      9.02253423       2       0      -1       0     122      0.00103380      0.00154887     -0.00003551      2.85911880    F      0.36856077     -1.32678329     -1.36384419      0.32976539     -1.51190468     -1.27053480      0.32976539     -1.51190468     -1.27053480      0.32976017     -1.51186414     -1.27055719
Si             25.59088759     76.72190600      8.94636542      14      0.00000000      0.00000000      0.00000000       1     25.58711782     76.71821797      8.94652763       3       0      -1       0     101      0.00325672      0.00443368      0.00052615      2.85911880    F      0.15074888     -3.40760979     -0.63316537      0.17290178     -1.90592858     -0.02247947      0.17290178     -1.90592858     -0.02247947      0.17296304     -1.90594331     -0.02248511
Si             31.01487055     75.72592461      9.01470744      14      0.00000000      0.00000000      0.00000000       1     31.01291654     75.72579818      9.01475943       4       0      -1       0     103      0.00182464      0.00025843      0.00005946      2.85911880    F     -0.00276464     -1.29359892     -1.37892046     -0.00768795     -1.46101847     -1.44131232     -0.00768795     -1.46101847     -1.44131232     -0.00766242     -1.46103991     -1.44129040
Si             42.47221457     76.38413084      8.97228790      14      0.00000000      0.00000000      0.00000000       1     42.47238052     76.38311920      8.97191427       5       0      -1       0     101      0.00009548      0.00125568      0.00008698      2.85911880    F     -0.51586006     -3.60887366     -0.87493843     -0.90947319     -2.01878583     -0.35501607     -0.90947319     -2.01878583     -0.35501607     -0.90949949     -2.01872531     -0.35500723
Si             45.49029718     76.52490387      8.98865194      14      0.00000000      0.00000000      0.00000000       1     45.49063193     76.52392481      8.98829867       6       0      -1       0      99     -0.00036010      0.00090133      0.00036468      2.85911880    F      0.83472337     -3.17515381     -0.88846870      0.98540979     -1.64978715     -0.33660909      0.98540979     -1.64978715     -0.33660909      0.98541707     -1.64973920     -0.33658384
Si             55.15975234     77.36430150      9.03878574      14      0.00000000      0.00000000      0.00000000       1     55.16258772     77.36044112      9.03877001       7       0      -1       0      97     -0.00273874      0.00405880     -0.00001665      2.85911880    F      0.89381918     -3.75154739     -0.90409883      1.17872028     -1.84912772     -0.38916709      1.17872028     -1.84912772     -0.38916709      1.17870023     -1.84912480     -0.38916185
Si             60.09538667     74.96680578      9.14368803      14      0.00000000      0.00000000      0.00000000       0     60.09703248     74.96797250      9.14353548       8       0      -1       0     116      0.00030020     -0.00075045     -0.00003542      2.85911880    F     -0.11291095     -1.31098282     -1.34171446      0.00508112     -0.89374447     -1.03528520      0.00508112     -0.89374447     -1.03528520      0.00508445     -0.89372951     -1.03529889
Si              8.60845701     74.02115974      9.01004974      14      0.00000000      0.00000000      0.00000000       1      8.49810318     73.98300535      9.09157714       9       0      -1       0      72      0.10929707      0.04041632     -0.08457743      2.85911880    F      4.11457370     -2.35294483     -1.30075246      1.35339679     -1.93159276     -0.25073305      1.35339679     -1.93159276     -0.25073305      1.35400045     -1.93087516     -0.25144435
Si             10.51328137     76.38570896      9.00407346      14      0.00000000      0.00000000      0.00000000       1     10.43696033     76.16243939      9.01321487      10       0      -1       0      65      0.07947810      0.23081455     -0.00313741      2.85911880    F      0.95927788     -3.04237766     -2.13798793      0.33732868     -0.86081673     -0.70444737      0.33732868     -0.86081673     -0.70444737      0.33714089     -0.86123557     -0.70434837
Si             13.49051137     75.91945868      9.00704769      14      0.00000000      0.00000000      0.00000000       1     13.42722591     75.83866185      9.00227159      11       0      -1       0      79      0.06747840      0.08594292      0.00336704      2.85911880    F      0.87418243     -3.47323247     -1.04221734      1.31404244     -1.68179544     -0.42450347      1.31404244     -1.68179544     -0.42450347      1.31422745     -1.68149606     -0.42455710
Si             50.55613209     74.40148526      9.06626643      14      0.00000000      0.00000000      0.00000000       1     50.55698851     74.39912318      9.06616357      12       0      -1       0     118     -0.00071774      0.00305948      0.00013298      2.85911880    F      0.04732038     -1.37359293     -1.37103200      0.05819136     -1.70393201     -1.43469405      0.05819136     -1.70393201     -1.43469405      0.05818143     -1.70390662     -1.43470709
Si             52.18364480     76.88755333      9.02850376      14      0.00000000      0.00000000      0.00000000       1     52.18679921     76.88382374      9.02847669      13       0      -1       0      95     -0.00311091      0.00416530      0.00010299      2.85911880    F     -0.03414560     -3.32122511     -0.86992873     -0.59321912     -1.81903080     -0.34937020     -0.59321912     -1.81903080     -0.34937020     -0.59321173     -1.81902419     -0.34937452
Si             20.11007700     75.41604909      8.97360619      14      0.00000000      0.00000000      0.00000000       1     20.10527193     75.41269047      8.97317891      14       0      -1       0     100      0.00346551      0.00174477      0.00023018      2.85911880    F      0.58671388     -2.77637698     -0.51032410      0.27697173     -1.68529144     -0.06158665      0.27697173     -1.68529144     -0.06158665      0.27707138     -1.68537972     -0.06161361
Si             38.09747979     73.08046270      9.04160493      14      0.00000000      0.00000000      0.00000000       0     38.09691565     73.07887363      9.04160319      15       0      -1       0     133      0.00008882      0.00037099      0.00004883      2.85911880    F     -0.26562887     -0.65855206     -1.26356800     -0.36654173     -0.99180704     -1.14458571     -0.36654173     -0.99180704     -1.14458571     -0.36652867     -0.99179156     -1.14457873
Si             15.12238825     73.44818103      9.05869343      14      0.00000000      0.00000000      0.00000000       1     15.11802524     73.41827153      9.06046882      16       0      -1       0     110      0.00229856      0.02949593     -0.00036440      2.85911880    F     -0.03897585     -1.33437588     -1.42378450      0.19854194     -1.59423161     -1.40994185      0.19854194     -1.59423161     -1.40994185      0.19890283     -1.59438108     -1.41012009
Si             23.06709559     75.16010581      9.04171912      14      0.00000000      0.00000000      0.00000000       1     23.06345026     75.15794598      9.04160086      17       0      -1       0     104      0.00304767      0.00281948      0.00003488      2.85911880    F      0.67537063     -1.85220087     -1.41420622      0.58357654     -1.66684477     -1.21312485      0.58357654     -1.66684477     -1.21312485      0.58345774     -1.66685299     -1.21314412
Si             33.28633307     73.77063267      9.03748989      14      0.00000000      0.00000000      0.00000000       0     33.28439522     73.76955919      9.03741045      18       0      -1       0     132      0.00011099      0.00016085     -0.00008189      2.85911880    F      0.48892621     -0.41934384     -1.19900846      0.51742146     -0.92179629     -0.79050195      0.51742146     -0.92179629     -0.79050195      0.51744234     -0.92176051     -0.79050496
Si             35.95432029     75.23916152      9.02686737      14      0.00000000      0.00000000      0.00000000       1     35.95324481     75.23736015      9.02692694      19       0      -1       0     107      0.00130677      0.00220596     -0.00007153      2.85911880    F     -0.64321761     -1.57541279     -1.07258533     -0.62160324     -1.67696724     -1.05722724     -0.62160324     -1.67696724     -1.05722724     -0.62156736     -1.67693703     -1.05723565
Si             41.03583481     73.83795758      9.04258309      14      0.00000000      0.00000000      0.00000000       1     41.03518096     73.83724362      9.04239355      20       0      -1       0     121      0.00029955      0.00051592      0.00006817      2.85911880    F      0.05314913     -1.61121518     -1.06194043     -0.01602158     -1.74059909     -1.28796501     -0.01602158     -1.74059909     -1.28796501     -0.01604479     -1.74058398     -1.28796208
Si             47.48899231     74.34968772      9.05191392      14      0.00000000      0.00000000      0.00000000       1     47.48977580     74.34895449      9.05173779      21       0      -1       0     118     -0.00094307      0.00121846      0.00020967      2.85911880    F      0.12928097     -1.59062538     -1.29385749      0.17898938     -1.83091606     -1.37807086      0.17898938     -1.83091606     -1.37807086      0.17897400     -1.83090467     -1.37805648
Si             52.45557857     72.07261669      9.08649866      14      0.00000000      0.00000000      0.00000000       0     52.45566066     72.06871589      9.08626669      22       0      -1       0     144      0.00017951      0.00041006     -0.00005721      2.85911880    F      0.60221585     -0.33683561     -1.19303728      0.69177877     -0.87678041     -0.78613478      0.69177877     -0.87678041     -0.78613478      0.69178822     -0.87675912     -0.78612227
Si             24.10396221     72.27963605      9.04440114      14      0.00000000      0.00000000      0.00000000       0     24.10209893     72.27743531      9.04401103      23       0      -1       0     132     -0.00009953      0.00100142     -0.00014946      2.85911880    F      0.15429373     -0.70807995     -1.16749531      0.27760849     -1.08918843     -1.07666375      0.27760849     -1.08918843     -1.07666375      0.27770208     -1.08907544     -1.07664077
Si             18.17299282     73.15814829      9.05535457      14      0.00000000      0.00000000      0.00000000       1     18.17062414     73.15480622      9.05438257      24       0      -1       0     124      0.00179453      0.00238735      0.00071862      2.85911880    F      0.22296849     -1.36404152     -1.35785490      0.22222656     -1.62231263     -1.24156358      0.22222656     -1.62231263     -1.24156358      0.22181586     -1.62250242     -1.24171047
Si             55.41640037     72.55821059      9.10395305      14      0.00000000      0.00000000      0.00000000       0     55.41741426     72.55436553      9.10385690      25       0      -1       0     146      0.00061625     -0.00016612      0.00002311      2.85911880    F     -0.64492444     -0.84366334     -1.16046444     -0.36493667     -1.25628258     -0.80089649     -0.36493667     -1.25628258     -0.80089649     -0.36497304     -1.25626323     -0.80089811
Si             27.17129740     72.15147225      9.04516920      14      0.00000000      0.00000000      0.00000000       0     27.16978399     72.15011158      9.04483202      26       0      -1       0     133     -0.00056923      0.00032733     -0.00017969      2.85911880    F     -0.19044777     -0.48464906     -1.14846030     -0.02299935     -0.76230594     -1.10223116     -0.02299935     -0.76230594     -1.10223116     -0.02300402     -0.76226738     -1.10222632
Si             46.07041790     71.67852905      9.06079738      14      0.00000000      0.00000000      0.00000000       0     46.06972090     71.67830060      9.06060277      27       0      -1       0     143      0.00046670      0.00017611      0.00005873      2.85911880    F     -0.41416338     -0.89253863     -1.05240677     -0.23586974     -1.45892801     -0.99088794     -0.23586974     -1.45892801     -0.99088794     -0.23585792     -1.45892073     -0.99088764
Si             43.01634479     71.53882320      9.05635491      14      0.00000000      0.00000000      0.00000000       0     43.01564721     71.53777988      9.05619962      28       0      -1       0     143      0.00036432      0.00069143      0.00008759      2.85911880    F      0.07134891     -0.56833720     -1.08736995     -0.23236748     -1.16925736     -0.85508226     -0.23236748     -1.16925736     -0.85508226     -0.23235469     -1.16923190     -0.85508219
Si             10.12457592     71.43703747      9.08721702      14      0.00000000      0.00000000      0.00000000       0     10.13993168     71.42957039      9.09473593      29       0      -1       0      95     -0.00612140      0.00278276     -0.00181759      2.85911880    F      0.87316541     -0.99835696     -1.36488646      1.04378333     -1.49611010     -1.46566143      1.04378333     -1.49611010     -1.46566143      1.04308993     -1.49901093     -1.46520643
Si             13.15711529     71.09647372      9.08187219      14      0.00000000      0.00000000      0.00000000       0     13.17710262     71.04958159      9.08024477      30       0      -1       0     116     -0.00835282      0.00255232      0.00082436      2.85911880    F      0.44096650     -0.76108245     -1.31168458      0.56027513     -1.37809878     -0.97979600      0.56027513     -1.37809878     -0.97979600      0.55991283     -1.37809888     -0.98025916
Si             19.33575878     70.35492083      9.06246910      14      0.00000000      0.00000000      0.00000000       0     19.33548495     70.35243784      9.06216709      31       0      -1       0     146     -0.00294285     -0.00121754      0.00021983      2.85911880    F     -0.08473014     -0.63997024     -1.14205222     -0.03152440     -0.87949000     -0.97416151     -0.03152440     -0.87949000     -0.97416151     -0.03154293     -0.87983800     -0.97415870
Si             22.33418136     69.80009788      9.06055894      14      0.00000000      0.00000000      0.00000000       0     22.33410802     69.79633377      9.06001908      32       0      -1       0     148     -0.00255987      0.00263213     -0.00019790      2.85911880    F      0.24849231     -0.10109935     -1.14326988      0.28096465     -0.43025343     -1.02380753      0.28096465     -0.43025343     -1.02380753      0.28090854     -0.43023769     -1.02382580
Si             28.60538724     69.48116714      9.05322883      14      0.00000000      0.00000000      0.00000000       0     28.60193053     69.47823896      9.05295169      33       0      -1       0     155     -0.00049681      0.00055044      0.00023737      2.85911880    F      0.06147899     -0.46909954     -1.08540631      0.00997452     -0.53703199     -1.00720640      0.00997452     -0.53703199     -1.00720640      0.01003367     -0.53696352     -1.00722176
Si             49.43891649     67.47141330      9.07274533      14      0.00000000      0.00000000      0.00000000       0     49.43716328     67.46886283      9.07249170      34       0      -1       0     159      0.00005311      0.00057759     -0.00039512      2.85911880    F     -0.05810453     -0.02009933     -0.89845596      0.12875740     -0.22858596     -0.93805466      0.12875740     -0.22858596     -0.93805466      0.12874962     -0.22858296     -0.93810723
Si              5.82806636     67.82112577      9.01132010      14      0.00000000      0.00000000      0.00000000       0      5.75007778     67.76990578      9.11629918      35       0      -1       0      84     -0.00411935     -0.00855598     -0.00421524      2.85911880    F      4.08677163     -0.95722524     -1.01830038      2.38090504     -0.33569813      0.04995929      2.38090504     -0.33569813      0.04995929      2.38109978     -0.33609432      0.04998425
Si             31.57297445     68.76831937      9.05389363      14      0.00000000      0.00000000      0.00000000       0     31.57041592     68.76679161      9.05361472      36       0      -1       0     154     -0.00035026      0.00053223      0.00010060      2.85911880    F     -0.23800907     -0.26254737     -1.05424839     -0.18177342     -0.40301534     -1.05778516     -0.18177342     -0.40301534     -1.05778516     -0.18170876     -0.40298674     -1.05779277
Si             33.86406232     70.77317382      9.04528896      14      0.00000000      0.00000000      0.00000000       0     33.86196043     70.77175676      9.04515811      37       0      -1       0     148      0.00018441     -0.00002448      0.00008737      2.85911880    F     -0.01374411     -0.34145834     -1.12499873     -0.08425141     -0.45565448     -1.16284205     -0.08425141     -0.45565448     -1.16284205     -0.08418946     -0.45563958     -1.16285271
Si              8.47725308     68.89549477      9.10561934      14      0.00000000      0.00000000      0.00000000       0      8.50167899     68.90541590      9.10100522      38       0      -1       0     104     -0.00896239      0.00125592     -0.00026987      2.85911880    F      0.95335924     -0.92383797     -1.28012726      0.73997009     -1.08303607     -0.99586068      0.73997009     -1.08303607     -0.99586068      0.74192448     -1.08205353     -0.99583976
Si             56.39600784     69.69846933      9.10391918      14      0.00000000      0.00000000      0.00000000       0     56.39617125     69.69396368      9.10393134      39       0      -1       0     158      0.00074428     -0.00031799     -0.00010251      2.85911880    F      0.60124016     -0.52264984     -0.86636116      0.47016215     -0.64520841     -0.82756067      0.47016215     -0.64520841     -0.82756067      0.47017775     -0.64513967     -0.82757000
Si             58.87538048     68.28800369      9.11490116      14      0.00000000      0.00000000      0.00000000       0     58.87822100     68.28755932      9.11498704      40       0      -1       0     163     -0.00080384     -0.00487344      0.00001798      2.85911880    F     -0.07254266     -0.12984725     -0.77573654     -0.17691489     -0.12573947     -0.37928253     -0.17691489     -0.12573947     -0.37928253     -0.17693674     -0.12586022     -0.37927377
Si             41.80641357     68.74248333      9.05566293      14      0.00000000      0.00000000      0.00000000       0     41.80549912     68.74124785      9.05550348      41       0      -1       0     161      0.00045477      0.00071938      0.00009580      2.85911880    F      0.09118904     -0.30311838     -1.01777926      0.32155687     -0.46338871     -0.89637117      0.32155687     -0.46338871     -0.89637117      0.32157805     -0.46335136     -0.89636849
Si             38.85616472     67.99271728      9.05507581      14      0.00000000      0.00000000      0.00000000       0     38.85502599     67.99053002      9.05497178      42       0      -1       0     151      0.00064847      0.00062200     -0.00011896      2.85911880    F      0.44099419     -0.22386911     -1.02326641      0.34934400     -0.36495319     -1.02529790      0.34934400     -0.36495319     -1.02529790      0.34933374     -0.36491181     -1.02530324
Si             51.97238453     69.06666870      9.07776142      14      0.00000000      0.00000000      0.00000000       0     51.97223848     69.06236205      9.07746869      43       0      -1       0     169     -0.00012506      0.00051275      0.00002880      2.85911880    F     -0.14530484     -0.75169404     -1.05001310     -0.06182809     -0.57772663     -0.91351031     -0.06182809     -0.57772663     -0.91351031     -0.06182342     -0.57769942     -0.91352769
Si             14.33615790     68.27380239      9.08546040      14      0.00000000      0.00000000      0.00000000       0     14.36194353     68.23407111      9.08415905      44       0      -1       0     151     -0.01261651      0.00110865     -0.00011478      2.85911880    F      0.21892821     -0.35973445     -1.18240471      0.45656314     -0.46133163     -1.04997455      0.45656314     -0.46133163     -1.04997455      0.45623830     -0.46159482     -1.04991940
Si             17.38778379     68.02453862      9.07712604      14      0.00000000      0.00000000      0.00000000       0     17.41010106     68.01020687      9.07648837      45       0      -1       0     148     -0.01196801      0.00651062     -0.00008115      2.85911880    F      0.37855076     -0.14686638     -1.10835704      0.40910286     -0.33282890     -0.96007366      0.40910286     -0.33282890     -0.96007366      0.40897969     -0.33276678     -0.95995846
Si             46.72110624     68.77583152      9.06457331      14      0.00000000      0.00000000      0.00000000       0     46.72024053     68.77545737      9.06436105      46       0      -1       0     168      0.00022370      0.00020917      0.00006480      2.85911880    F     -0.11284910     -0.40231613     -0.89569881     -0.12591348     -0.35668977     -0.88432829     -0.12591348     -0.35668977     -0.88432829     -0.12592377     -0.35670569     -0.88433447
Si             23.82717103     67.12302141      9.06831895      14      0.00000000      0.00000000      0.00000000       0     23.82304617     67.11651163      9.06778033      47       0      -1       0     161     -0.00200702      0.00268834      0.00030023      2.85911880    F     -0.14444811     -0.22680848     -1.06193478     -0.07252564     -0.26587463     -1.10122421     -0.07252564     -0.26587463     -1.10122421     -0.07234860     -0.26598283     -1.10132387
Si             26.87942408     66.93500986      9.06492991      14      0.00000000      0.00000000      0.00000000       0     26.87579246     66.93204047      9.06456385      48       0      -1       0     159     -0.00178129      0.00074654      0.00041116      2.85911880    F      0.20445757      0.07715673     -1.09095362      0.18488982     -0.17133045     -0.98798556      0.18488982     -0.17133045     -0.98798556      0.18488414     -0.17140710     -0.98803613
Si             44.25172149     67.02834710      9.05931210      14      0.00000000      0.00000000      0.00000000       0     44.25132184     67.02716080      9.05908188      49       0      -1       0     172     -0.00009198      0.00091594      0.00016183      2.85911880    F      0.13084808      0.02744003     -0.96393658      0.02276220     -0.10810450     -0.73651951      0.02276220     -0.10810450     -0.73651951      0.02277052     -0.10808053     -0.73649181
Si             54.47081175     67.32618511      9.08830654      14      0.00000000      0.00000000      0.00000000       0     54.47009410     67.32166862      9.08818888      50       0      -1       0     182     -0.00047336      0.00064419      0.00004280      2.85911880    F     -0.33067209      0.54518840     -1.08529798     -0.34161252      0.38581320     -0.81049481     -0.34161252      0.38581319     -0.81049481     -0.34161276      0.38581560     -0.81048964
Si              9.60827597     66.03854060      9.10554297      14      0.00000000      0.00000000      0.00000000       0      9.63773123     66.08533052      9.10275499      51       0      -1       0     122     -0.00802783      0.00277989     -0.00057584      2.85911880    F      0.56230475      0.45156823     -1.14434185      0.64991981      0.09706695     -1.03432979      0.64991981      0.09706695     -1.03432979      0.64979233      0.09724492     -1.03416803
Si             12.61105100     65.74585092      9.09430223      14      0.00000000      0.00000000      0.00000000       0     12.61712201     65.72561680      9.09567406      52       0      -1       0     155     -0.00779057     -0.00302987      0.00088993      2.85911880    F      0.49131293     -0.21695582     -1.13651595      0.56868284     -0.18926481     -1.16232714      0.56868284     -0.18926481     -1.16232714      0.56876416     -0.18946301     -1.16232435
Si             58.91199262     65.43939389      9.10733874      14      0.00000000      0.00000000      0.00000000       0     58.91355232     65.44105712      9.10706447      53       0      -1       0     168     -0.00132667     -0.00530716      0.00022461      2.85911880    F      0.21661624      0.08906396     -0.62005787      0.20031676      0.25733748     -0.73389760      0.20031676      0.25733748     -0.73389760      0.20047784      0.25710486     -0.73402751
Si             31.67750845     65.73317548      9.06392606      14      0.00000000      0.00000000      0.00000000       0     31.67586703     65.73158874      9.06357657      54       0      -1       0     172     -0.00121945     -0.00009880      0.00006038      2.85911880    F     -0.21222704     -0.17112897     -1.02781590     -0.16578087     -0.25745858     -0.89807638     -0.16578087     -0.25745858     -0.89807638     -0.16574542     -0.25748458     -0.89809168
Si             18.86055297     65.34761877      9.08447113      14      0.00000000      0.00000000      0.00000000       0     18.87266747     65.33231262      9.08370439      55       0      -1       0     158     -0.01420462      0.00680222     -0.00024404      2.85911880    F     -0.10275492     -0.25648887     -1.03403533     -0.06270492     -0.22367846     -0.97402422     -0.06270492     -0.22367846     -0.97402422     -0.06302629     -0.22351748     -0.97406021
Si             21.87713000     64.79435385      9.08048766      14      0.00000000      0.00000000      0.00000000       0     21.88825360     64.77385492      9.07966222      56       0      -1       0     159     -0.01342799      0.01066766     -0.00039650      2.85911880    F     -0.15272869     -0.13433961     -0.99578928     -0.23759298     -0.29337784     -0.96129124     -0.23759298     -0.29337784     -0.96129124     -0.23755019     -0.29355578     -0.96123212
Si             28.80910628     64.58429090      9.07135731      14      0.00000000      0.00000000      0.00000000       0     28.80757575     64.58275657      9.07098611      57       0      -1       0     161     -0.00131757      0.00104764      0.00003223      2.85911880    F      0.31683398      0.06847813     -1.07915695      0.18836261      0.04122790     -0.89278782      0.18836261      0.04122790     -0.89278782      0.18833884      0.04122478     -0.89284479
Si             38.89683013     64.96824349      9.06170147      14      0.00000000      0.00000000      0.00000000       0     38.89448880     64.96518336      9.06179140      58       0      -1       0     166      0.00227055      0.00033490     -0.00010609      2.85911880    F      0.07661962     -0.28045753     -1.00558133      0.11372697     -0.35193327     -0.93424253      0.11372697     -0.35193327     -0.93424253      0.11382035     -0.35195530     -0.93418506
Si             57.21094399     62.97482461      9.09016797      14      0.00000000      0.00000000      0.00000000       0     57.20972792     62.97903544      9.08985872      59       0      -1       0     172     -0.00162081     -0.00604875      0.00025819      2.85911880    F      0.06450486      0.55612330     -0.84456892     -0.20878315      0.36544464     -1.02088709     -0.20878315      0.36544464     -1.02088709     -0.20902558      0.36507269     -1.02100555
Si             33.63330106     63.45531393      9.06994236      14      0.00000000      0.00000000      0.00000000       0     33.62996272     63.45164906      9.06978738      60       0      -1       0     150      0.00116083      0.00123576     -0.00075162      2.85911880    F     -0.33335604     -0.27619994     -1.00097396     -0.19464380     -0.14715629     -0.94491232     -0.19464380     -0.14715629     -0.94491232     -0.19448745     -0.14727777     -0.94489611
Si             41.42038011     63.30615399      9.06359803      14      0.00000000      0.00000000      0.00000000       0     41.41998617     63.30509741      9.06367359      61       0      -1       0     170      0.00179127     -0.00134619     -0.00063755      2.85911880    F     -0.10335609     -0.36432136     -0.95947786     -0.11044741     -0.27646190     -0.89381731     -0.11044741     -0.27646190     -0.89381731     -0.11047540     -0.27651853     -0.89372323