8770
energy=-167646.13880125 cutoff=10.58354498 nneightol=1.20000000 pbc="T T T" Lattice="265.39576501       0.00000000       0.00000000       0.00000000      98.00293199       0.00000000       0.00000000       0.00000000      24.28372928" Properties=species:S:1:pos:R:3:Z:I:1:momenta:R:3:force:R:3
Si              5.00086227     11.46162434      5.53120599      14     -0.00000000     -0.31757755     -0.00000000      4.47383656      0.29335253      0.61365053
O               6.30231593     10.62337077      5.10405492       8     -0.00000000     -0.84329272     -0.00000000     -2.93362321      0.76583825      0.30674930
O               5.00723728     12.98594586      5.08112591       8      0.00000000      0.80958932      0.00000000     -1.84394627     -1.30350910      0.24946111
O               5.00000000     11.38746375      7.14186463       8      0.00000000      0.38086949      0.00000000     -2.25246309     -0.24753179     -0.25938548
Si              5.00086227     11.47384414      8.75252328      14      0.00000000      0.53311172      0.00000000      3.24229017      0.70017377     -0.99561697
O               6.30231593     10.72831657      9.17967435       8     -0.00000000     -1.04934214     -0.00000000     -1.10195434     -0.69877483     -0.09790930
O               5.00723728     12.97047872      9.20260336       8     -0.00000000     -0.18165209     -0.00000000     -2.10493899      0.99707932     -0.48190482
Si             10.34638527      5.54120162      5.56871922      14      1.05345841     -0.31686570     -0.94904460      1.55302682      1.25325303     -0.81194756
Si              7.66218606      6.88658910      5.52590560      14      0.00000000      0.32377140      0.00000000      2.19650409     -0.26563799      1.53877905
Si              7.66462340      9.92933663      5.53251478      14     -0.00000000     -0.58094838     -0.00000000      1.76230794     -0.18618797     -0.11219804
Si             10.37261596     11.41851393      5.43174495      14      0.09210785     -0.76872936      0.32214032      1.04840632      0.26297173      1.20635900
O               8.94355459      6.04726238      5.11009363       8      0.00000000      1.25489234      0.00000000     -0.81572895     -0.22646352     -0.16073311
O              11.66119921      6.29715159      5.10245258       8     -0.17910424     -0.09014341     -0.49217339     -4.03979253     -3.03418656     -0.45683179
O               7.66808511      8.33950465      5.08243827       8     -0.00000000     -0.37476362     -0.00000000     -1.24329480      1.22374602      0.08159040
O              11.76939095     10.67094646      5.03539609       8      0.42253107      0.70285946     -0.07335301     -1.55347508      0.38401909     -0.28685015
O               9.02223119     10.57008624      5.10272869       8     -0.00000000     -0.48758503     -0.00000000      0.05777094      0.08241426     -0.32588154
O              10.21409500     12.97013420      5.10690136       8     -0.21486702      1.14221617     -0.47711771     -0.09510280     -0.08699890      0.29411552
O              10.22050038      5.09896694      7.07977779       8     -1.10097110      0.03299353      0.42952650      0.31030920      0.21587937      0.62456009
O               7.65940928      6.73774974      7.14186463       8      0.00000000      0.19948745      0.00000000     -1.49121305     -0.13456714      0.34247568
O               7.66580477      9.87895355      7.14186463       8      0.00000000      0.56246813      0.00000000     -1.24207446     -0.38749141     -0.00547489
O              10.42002454     11.29288884      7.07494651       8     -0.24651788      0.60164107     -0.68930828     -0.77666612     -0.00141214      0.09876175
Si             10.30164384      5.50044195      8.62575475      14      0.48034909      0.11534337     -0.34349535      0.56980900     -0.18166547      0.05976167
Si              7.66218606      6.93169760      8.75782366      14     -0.00000000     -0.11727855     -0.00000000      3.21177720      0.53077945     -0.84688982
Si              7.66462340      9.99215039      8.75121448      14      0.00000000      0.26190687      0.00000000      1.39029562      0.08770767      0.09047296
Si             10.31677987     11.46200631      8.70746930      14     -0.47145217     -0.40884477     -1.19161439     -0.21259816      1.76493599     -1.17111460
O               8.94355460      5.99802534      9.17363564       8      0.00000000      0.16609294      0.00000000     -2.53633263      1.03225502     -0.41796068
O              11.59745402      6.09413773      9.20654977       8      0.18096012      1.12774613     -0.01450990     -0.44075620     -0.61016354     -0.37574991
O               7.66808511      8.42788414      9.20129099       8      0.00000000      0.78876774      0.00000000     -1.19080508     -1.53882189     -0.47526310
O              11.66122091     10.79494026      9.17016893       8     -0.21569823     -1.56090697     -0.28772431      0.88728448     -0.77273133      0.20564602
O               9.02223119     10.63111571      9.18100058       8      0.00000000      0.02042662      0.00000000     -0.47068301     -0.27688104     -0.09798398
O               9.98276864     13.01305929      8.99212688       8      0.68725110     -0.02450045     -0.38601787      0.55976537     -1.37297293      0.28703623
Si             15.74115652      5.46301876      5.75110341      14      1.43019858      0.66360203     -1.39466169      1.63956412      0.55980725     -3.04787076
Si             13.01978559      6.86502720      5.54341005      14      0.69995177      1.22116548      1.00335658      2.27119988      1.62955274      0.20013022
Si             13.02335188      9.84024799      5.51444196      14     -0.48956743     -0.67858600      0.33027006      0.98711988      2.40031134      0.45677887
Si             15.77831651     11.53024386      5.48278314      14     -0.44032643     -0.15344748      0.11988438     -1.10699012     -1.39434062     -1.12335261
O              14.34081475      5.92239797      5.36844550       8     -0.63502770     -0.76013326     -0.68868453     -2.30258442      1.04729798     -0.51054860
O              17.01770021      5.99932237      5.01358117       8      1.28605803      0.10836354     -0.35167044     -0.81374436     -0.31328545      0.93534830
O              13.09070143      8.35152080      5.01432083       8      0.21593043      0.46908011     -0.86014911      0.30913368     -2.10700334     -0.22255680
O              16.95936483     10.54504350      4.90828177       8     -0.65560789     -0.35774141     -0.24018586     -0.66335091      1.29123551      1.07970053
O              14.45075061     10.54424407      5.30442807       8     -0.67051259      0.07404113     -1.40031691      0.11194126      0.74222117      0.15686126
O              15.86652666     13.01277869      4.90189454       8      0.66823784     -0.16050484      0.75467378     -0.70629163     -0.66282037      0.23710487
O              15.73221895      4.95965809      7.18954876       8      0.58970272     -0.64705148      0.62277750     -0.24668613     -0.15786940      3.17497119
O              12.76314714      6.78639053      7.13999500       8     -0.36880324     -0.13660272     -1.04468619      0.49295962     -0.17767143     -0.02869386
O              12.77262740      9.58022749      7.10340893       8      0.09131160      0.27931307      0.96215344      0.18248651      0.16917357     -0.33572650
O              15.81864667     11.67122064      7.08363734       8     -0.50975305      1.38284759     -0.12957152      0.46839854      0.11529991     -3.05572178
Si             15.57465660      5.52714362      8.71107505      14      0.23404647      1.69095110     -0.82001637     -0.02762153      0.14605529     -0.13912339
Si             12.88656052      6.93019265      8.72375293      14      0.15636120      0.22720368      0.48638874      0.48385166      0.82332500      1.15521575
Si             12.92140804      9.95244893      8.65557601      14     -0.38321389      1.42432209      0.20478784      0.60107483      0.02758647      1.05904956
Si             15.65872036     11.52521406      8.59748048      14      0.28757476      0.51369251     -1.26192801     -0.36096410     -1.73968252      3.42763070
O              14.19033276      6.09092941      9.15811179       8      0.07041487      0.47244764      0.47258439      0.77934078     -0.75126964     -0.88940463
O              16.95889510      6.06659199      9.10038572       8      0.29439831     -0.59946131     -0.30191869      0.68644020      0.59299169      0.01318722
O              12.90229489      8.40040764      9.24736244       8      0.17098683     -0.06933622     -0.75275500     -0.15596280      0.37306169     -0.40648165
O              16.90699852     10.58495505      9.01532721       8     -0.94959635     -1.08959513     -0.19040660      0.64570911      0.21651992      0.32486913
O              14.35764206     10.60226207      8.91029396       8      0.45233837      0.32433755     -0.73323919     -0.27198410      0.22190918     -0.45001023
O              15.56575756     12.98417673      9.22703737       8     -0.04461601      1.06983180     -0.06627896      0.41502082     -0.50393004     -0.25864934
Si             21.10287827      5.53322661      5.48943697      14      0.51135261      0.21191477     -0.19301425     -4.90695997     -0.48831112      0.56982318
Si             18.30940194      6.87851153      5.40110924      14     -0.74637779      1.55755288     -0.18235321      1.24360405     -0.38029082      0.34244083
Si             18.34759987     10.01485968      5.40584524      14     -0.51373740      1.14274464     -0.41201191     -0.59112906     -2.27497775      1.76292284
Si             20.99592242     11.47829601      5.39326420      14      0.03124911     -1.71495120      0.84825815      1.62183373     -1.72067145      0.41712069
O              19.59048341      5.90353787      5.03253950       8      0.23172883     -1.15676708     -0.57189396      1.57553896      0.50379765      0.96855224
O              22.36853527      6.18114318      5.00218910       8     -0.74896487      1.08262577     -0.56524677      1.88664630      1.13208842     -0.04334039
O              18.38195498      8.40099752      5.08531728       8     -0.96317096     -0.57619698     -0.89331237      0.13215686     -0.03869641     -0.54276840
O              22.31692065     10.52117406      5.01864649       8     -0.00607940      0.70967581      0.95421681     -1.37565694      1.15850645      0.73503088
O              19.68144029     10.66705685      4.96938716       8      0.86605516      0.76514455     -0.62779124      0.83619052      0.84567084     -0.64795125
O              21.30816900     12.95524617      4.93972730       8     -0.69225128      0.35033509     -0.32881537     -0.75017418     -0.29121021      0.08832280
O              20.99053645      5.02415985      7.01470153       8     -0.56290509      1.49913000     -0.77141756     -0.25909503      0.99333976     -0.07838598
O              18.26164313      6.85257497      7.05011504       8      0.70287202     -0.13398719     -0.44021708      0.15827438     -0.44438602     -0.22983270
O              18.34384535      9.82615431      7.08430261       8      0.01163865      0.28127495     -0.17937276      0.26443059      0.43219312     -1.53953461
O              20.78911268     11.40414632      7.01845564       8     -1.04629223      0.02534117     -0.78361826      0.61811160      0.28471950     -1.53846725
Si             20.83042248      5.52663998      8.55293702      14      1.49691473      2.26262070     -0.69928145      2.77905528     -1.55150022     -1.60635330
Si             18.29108831      6.93778517      8.65889541      14      0.99925120      0.08191921     -0.02084733     -1.49809954     -2.12798115     -0.22908400
Si             18.34761627      9.97264923      8.68347444      14      1.58413364      0.79533301     -1.31952136      0.32302029      0.74357062      0.65295664
Si             21.03477161     11.45345441      8.58956965      14      0.55842756     -0.18449301     -0.19001779     -1.46288109      0.98405110      0.47707801
O              19.47408956      5.91182249      9.08587976       8     -0.01085178     -0.75773618     -0.07429412     -1.22807312      0.89937919      0.19434849
O              22.27660912      5.91216418      8.93130357       8     -0.16649976      1.34364783     -0.48639232      1.06360791      1.35544043      0.68760418
O              18.29181597      8.37278504      9.15320602       8     -0.16170818      0.36610068      0.35990642      0.60583042      2.35836207      0.24325598
O              22.25977731     10.58655939      8.95914092       8     -1.31863597     -1.11248904     -0.36009986      0.74887741     -0.69989266      0.79265247
O              19.71937979     10.75331267      9.16129125       8     -0.12638289     -0.65991549      0.98516029     -2.23033300     -1.40957026     -0.49957983
O              21.25309671     12.96205159      9.01293919       8     -1.72448682     -0.65931459      1.22529058     -0.26822166      0.12666564     -0.25885095
Si             26.26849661      5.58957447      5.65260609      14      0.92979270      0.78889508      0.58607250     -0.84710538      0.03022249     -1.57155895
Si             23.71587462      6.99443220      5.50689892      14      0.07741389      1.96123617     -1.63011152     -1.06447826     -0.71729747     -0.80140828
Si             23.75476598     10.04659172      5.47513925      14     -0.17697053      1.60115887      0.51088273     -0.38264089     -0.21016921      0.65683681
Si             26.36017712     11.61139451      5.58835853      14      0.69435059      0.28545507     -0.27280894     -0.32207510     -2.70671285      1.36031421
O              24.89032305      6.00510644      5.06660747       8      0.34122408     -0.38430600     -0.91037378      1.11066103     -0.30483100     -0.17299408
O              27.62076209      6.17840792      5.21592525       8      0.65916317      0.33845299     -0.58845945     -0.65264541     -0.79749360     -0.05175085
O              23.85043872      8.47365139      5.08690682       8     -0.36731662     -0.52318529      0.46298166      0.11182169     -0.24168549     -0.12509787
O              27.61606603     10.72275450      5.19856292       8      0.69645602      0.72817323     -0.52812320      2.03831297     -1.11647808      0.21239150
O              25.05519913     10.82458542      5.07943748       8     -0.29855739      0.01513621      0.33841150     -0.06579388      0.28834392     -0.33213911
O              26.49236951     13.07712751      5.19619882       8     -0.45507571     -0.07586505      0.89559606      0.27541630      1.92228011     -0.93434337
O              26.14651327      5.10264321      7.13313127       8     -0.80904280      1.60839384     -0.20215991      0.29417275      0.39057470      1.09389890
O              23.70440637      6.69401278      7.07742992       8      0.40678919     -0.31507043     -0.03470080      0.20175600      0.76917888      1.86280195
O              23.75154556      9.87638711      7.10016702       8      0.17125153      0.59135685     -0.20062454      0.08483699     -0.08832644     -0.17226371
O              26.26545707     11.40931457      7.20299557       8     -0.72878109      0.13878977     -0.64414418      0.02363520      0.77876983     -0.05842191
Si             26.21119883      5.59965801      8.64378529      14      0.42194253      0.61040447      0.18492120     -0.02909918     -1.28860925      0.29313780
Si             23.62255336      6.87570662      8.73704240      14      1.55808321      0.24542011      1.68634890     -1.67968758     -0.20406635     -0.74785337
Si             23.68423746      9.99739806      8.71658324      14     -0.37825072      0.64549608     -0.95980841      0.57685386     -0.97449728     -0.50297821
Si             26.34189543     11.48664743      8.84035149      14     -0.01921056     -0.54402951     -0.31438323     -0.25348318     -0.58275254     -1.36081485
O              24.92247945      6.11145321      9.29647978       8     -1.18535701      0.90658476     -1.06210396     -0.75266041      0.20191876     -0.51939632
O              27.60459691      5.87392318      9.20587556       8     -0.51805654      0.33292871     -2.01804310      1.85391659      0.88294140     -0.55535535
O              23.55642350      8.38435884      9.13957850       8      0.89696724      0.87820747     -0.68148387      0.24012264      0.16723085     -0.43631601
O              27.57815422     10.51921004      9.07437213       8     -0.07456884     -0.21164071      0.53260918      1.59060704     -0.23639900      0.67493442
O              24.98889566     10.72229745      9.23051872       8     -0.97776958     -0.25553033     -0.11689527     -0.50766898     -0.54421107      0.34596484
O              26.37703764     12.97715646      9.32606598       8      0.34129190      0.33893117     -0.79182482      0.67233992      0.86431256     -0.38211672
Si             31.57891448      5.63161958      5.68696061      14      0.56196380     -0.92490604      1.36273141      0.16591418     -0.64328128     -0.11614396
Si             28.96841268      6.88534253      5.60040175      14      0.81593461     -0.60886324     -0.10269029      0.46559376      2.15595624     -0.49262790
Si             29.01253883      9.98246141      5.56052748      14      1.64776988      1.44402049      0.52221630     -1.62558230     -0.09163549      1.05672034
Si             31.62038561     11.43659316      5.67582107      14     -0.58990202     -0.61437563     -1.22321792      1.24986868      0.21626497      0.27480972
O              30.21917812      6.01046785      5.08329234       8     -0.83037513     -0.13402957     -0.37289528     -0.39887905      0.10205804      0.17636427
O              32.94774422      6.15776605      5.25772530       8      0.43036776     -0.61327953      0.67520556      0.55343566     -0.07945275     -0.52121359
O              28.96972865      8.40685733      5.15922315       8      0.33512868     -0.21427662     -0.31835707      0.19244044     -0.98996819     -0.09951075
O              33.07726394     10.72570905      5.46037921       8     -0.48563249     -0.19107687     -0.59789201     -1.74727941      0.49388659     -0.06274478
O              30.34699266     10.68701384      5.10955399       8     -1.18888316     -0.04034222     -0.91351074     -0.28543540     -0.90411919     -0.33522913
O              31.57858360     12.93134148      5.18845494       8      0.78492687     -0.58008990     -0.22072792      0.61309380      0.63714051     -0.47381710
O              31.55873158      5.15807091      7.20046224       8      0.75229525      0.72186273      0.31844971      0.12573480      0.08081287     -0.61686147
O              29.06069277      6.76447072      7.20093885       8     -0.90012606     -0.13358830      0.76882632     -0.20859485     -0.48910997      0.92878159
O              29.05410150      9.67139586      7.21203248       8      0.28119062      0.96924254     -0.02613098      0.27314286      0.44332740     -2.32003940
O              31.36357044     11.40305230      7.25721668       8      0.35653635      0.25476821      0.23584322      0.32548907     -0.28501198      0.42273508
Si             31.68570699      5.56281194      8.70657323      14     -0.12039922     -1.03315487     -0.88073958     -1.64381706     -0.72305807      0.71681139
Si             28.92423048      6.78312900      8.83918420      14     -0.27130091     -0.10129515     -1.29000405      0.95738313      0.13969771      0.32858092
Si             29.02534163      9.83382078      8.78053042      14      0.70192020     -0.74669440      1.60669922     -2.95330837      0.42040671      0.50831172
Si             31.55642057     11.34588373      8.87521529      14      0.43974307     -0.18205306      0.92964874      2.10235249     -0.36428243     -1.54946003
O              30.33293907      6.01536852      9.28852154       8     -0.83710680     -0.95538625     -0.05272864     -1.80673432      0.76125642     -0.41296752
O              33.02039093      5.93609250      9.32494114       8     -0.26905215     -0.10537719     -0.08482078      0.28637428      0.03476086      0.57145804
O              28.80492168      8.30025653      9.24936491       8     -0.12110753      1.13991017     -0.49827557      0.33918024     -1.34689166      0.07449497
O              32.93785822     10.58304995      9.14144840       8      0.44542730      0.13161565     -1.10357574      1.48269117     -1.17547473     -0.12298647
O              30.37152502     10.42998528      9.29352444       8      0.04787783      0.29730114     -0.10115771     -0.81659608     -0.67197132      1.12659072
O              31.69457746     12.79172186      9.36323014       8      1.00004052     -0.43036603      0.44805889     -0.36657891      3.94883751      0.36977138
Si             36.98865265      5.57492602      5.67895216      14      0.21450790      1.29167179      0.40362427     -0.31756467     -0.01778443      2.08570612
Si             34.26682119      6.96506691      5.68212628      14     -1.06662011      0.23650526      0.15444355      0.40588866     -2.40751712      1.44614646
Si             34.41659962      9.98642031      5.74631594      14     -2.45542884      0.58383609     -0.62934216      0.51474798      0.03035701      0.73568818
Si             37.10996513     11.38953689      5.68891692      14      0.56025375      0.16134002     -0.64692179      0.18011296      2.16414467      0.46691314
O              35.58160616      6.04714597      5.32747167       8      0.88700249      0.30244346      0.15119259     -1.36079684      0.66439680     -0.30744576
O              38.36507928      6.03789670      5.25150069       8     -0.79269449      0.02346341      0.58599969      1.51369491      0.37282449     -0.82405253
O              34.19093095      8.41967047      5.28229389       8      0.34874150      1.27361246      0.67525399      0.67852812      2.20867070     -0.72745191
O              38.42990321     10.62313638      5.20208298       8     -0.82732163     -0.10945441      0.60380101      0.13661179     -0.78833888      0.56427664
O              35.72918141     10.74448862      5.25845654       8      0.00234106      0.75103545     -0.07138143     -0.61908761     -1.25361594     -0.68328418
O              37.37416920     12.93431141      5.28785512       8      0.81221730      0.25454099     -0.69265755     -0.35944236     -3.00258404     -0.48296816
O              37.13149738      5.34929383      7.28206295       8     -1.16730608      1.19166289      0.59905069     -0.35957957     -0.81907316     -2.03292880
O              34.17053308      6.76606590      7.31731737       8     -0.38208978     -0.54939602     -0.27183705      0.12896176      0.43488035     -0.64313953
O              34.58025748      9.69381166      7.34797250       8     -0.52778935      0.08593679     -0.02284927     -0.11531613     -0.08343069     -0.15392788
O              36.83898866     11.44286060      7.29409752       8     -0.39273654      0.41554817      0.04382697      0.89676144     -0.25658592      0.72425156
Si             37.01493029      5.67357943      8.78648493      14     -0.11240692     -0.15079566      0.39462203      0.62317070      2.09703524      2.35178117
Si             34.23406051      6.87013200      8.93549772      14     -0.17961428      0.19217448     -1.01547209      2.24382240      0.40512917     -0.00220195
Si             34.41871984      9.92757761      8.95199652      14     -0.64780408     -0.75623914      0.15595655     -1.54491494      0.16373998     -0.02144707
Si             37.01267869     11.42790393      8.94083957      14     -0.80430479     -0.11004506     -1.37921917      0.44614890      1.23363580     -0.88955962
O              35.56004569      5.98963795      9.28873022       8      0.75377695      0.77106317     -0.33275010      1.02286806     -0.23174591     -0.57385316
O              38.36903262      6.36776677      9.27117883       8     -0.60761728     -0.73250350      0.61935501     -1.25358402     -1.44216625     -0.84322805
O              34.37572585      8.33212475      9.46437759       8     -0.55006565     -0.71563165      1.09695772     -0.21166299      0.91920480     -0.63092934
O              38.32515459     10.54173941      9.10268186       8      0.36343454      0.16207556     -0.52336227      0.49334607     -0.12976044      0.29130070
O              35.67170146     10.76330915      9.45350785       8     -0.20510332      0.13958264     -0.52024532     -0.74790732     -1.04906766      0.08716922
O              37.19922393     12.88550697      9.56972014       8      0.42504101      0.38926450      0.62182537     -0.07346180      0.46109464     -1.18580196
Si             42.29730157      5.50701297      5.58933146      14      0.38429329     -0.16989724     -1.29164631      0.92986836     -0.20484334      0.45769516
Si             39.75738458      6.80378668      5.56030726      14     -0.59348069     -1.41977014     -0.73277840     -2.21408953      1.34705273      1.67736897
Si             39.81751521      9.93385753      5.60353764      14     -0.37468147      0.42544529     -0.33555766     -3.28087135     -2.03194278     -0.60774094
Si             42.40399389     11.29624122      5.61487254      14     -1.54485948      2.41183902      0.08789412      3.01815029      2.40155139     -1.97735516
O              40.89430073      5.86970756      5.05456688       8      1.40820822     -0.93603469      0.57956662      1.15132646     -1.01703172     -0.10429665
O              43.60070873      6.20334371      5.15825556       8      0.35705761      0.69103382     -0.17717186      0.24532400      0.32089238     -0.65153154
O              39.77560187      8.30021480      5.16941649       8      0.11093034      0.36102176     -0.72243979      0.12799102      1.55771710      0.02624711
O              43.74280579     10.44770665      5.22728557       8     -0.30946624      0.22515344     -1.04871408     -0.40160497     -0.02885977     -0.11795441
O              41.13438841     10.51493788      5.08811024       8      1.05599876     -0.16099618     -0.92347941      1.63245084      0.95038497     -0.42970606
O              42.74022995     12.86467439      5.14043382       8      1.12983050     -0.37529598     -0.06371374     -0.73111948     -1.96361388      0.69683868
O              42.45190650      5.06586473      7.11671578       8     -0.66798758      0.88501431     -0.67164326     -0.46576732      0.35592921      0.14807032
O              39.87229760      6.81503319      7.22522152       8     -1.34185755      0.49050679      0.09117572     -0.06618851     -0.27052598     -2.27137293
O              39.78833239      9.83025237      7.18647155       8     -0.60484322      0.25346398      0.03227861      0.63027170     -0.04855640      0.40402255
O              42.44467703     11.33041539      7.18202757       8      0.85043746     -0.61615410      0.59645154     -0.57295264      0.44614782      2.42404870
Si             42.39639733      5.55948779      8.63368414      14     -0.98050183     -1.25095672     -0.17307052      1.72192998      0.05336653      0.40557558
Si             39.79722989      6.99235765      8.80402720      14     -0.75835466     -0.11918330     -1.02468922     -1.05310751     -0.86714553      0.93768259
Si             39.79396281     10.03910034      8.77784693      14      0.17007974     -0.50158422      0.42844874     -1.45381123     -1.69920862      1.05031932
Si             42.52520109     11.42811638      8.83562710      14     -0.04212202      1.17280482      0.75096823     -0.90925539     -1.19295472      0.58547337
O              41.03565891      6.00722355      9.16531903       8     -1.73268095     -0.10580543      1.10330415     -0.70062954      0.18045358      0.42246297
O              43.74387640      6.10379510      9.23404701       8      0.21754745     -0.38216510      0.08185014     -1.03946947     -0.16659139     -0.54581660
O              39.79954293      8.44658860      9.30563537       8     -0.57920429      0.30381177     -0.30631159      0.68389776      1.54005595     -0.58880410
O              43.72341045     10.36548643      9.08832437       8      0.14504870      0.33920935      0.50418812     -2.44443951      1.23973492      0.42276252
O              41.08913759     10.71257377      9.30905793       8     -0.66940818     -0.31223068     -0.55241180      2.08001164      1.42406668     -0.74126963
O              42.83541891     12.82876902      9.54455873       8     -0.18817867     -0.33891687     -0.68913567     -0.55802169      0.22856814     -2.27995654
Si             47.58858800      5.53547782      5.61850637      14      0.18600531     -0.04694749      0.24696996     -0.66922171      0.74144425     -1.62441154
Si             45.00084980      6.90813092      5.54748523      14      0.56510704      0.02004024      0.47788347     -0.28203855      0.89236814     -0.01206213
Si             45.21341601      9.92876030      5.49659434      14     -0.19090633      0.96550356      1.79992483      0.35509221     -0.88833080      0.88350287
Si             47.86417315     11.37897108      5.54007410      14      0.17762350      0.53097801     -0.49565044      0.88768710      0.62439350      1.74843246
O              46.16712786      5.91384857      5.11446303       8     -0.38303630     -0.81470331      0.32311458      0.97721989     -1.01375308      0.15729615
O              48.86381998      6.33751181      5.29158140       8      0.08305582      0.19844009      0.36979138     -0.09745583     -0.45336122     -0.64824115
O              45.44310332      8.34785011      5.06709875       8     -0.73624198     -0.91653035      2.05197705     -1.02453950     -0.11186396      0.23482056