7931
OrigWidth=249.57335402 OrigHeight=67.43324632 cell_origin="-132.28667701    -41.21662316     -9.93808612" strain=0.10000000 is_cracked=F n_efield_old=3 energy=-151856.86348170 cutoff=10.58354498 nneightol=1.20000000 pbc="T T T" Lattice="264.57335402       0.00000000       0.00000000       0.00000000      82.43324632       0.00000000       0.00000000       0.00000000      19.87617225" Properties=species:S:1:pos:R:3:Z:I:1:dipoles:R:3:clamp_mask:I:1:pos_orig:R:3:orig_index:I:1:map_shift:I:3:n_neighb:I:1:force:R:3:charge:R:1:fixdip:L:1:efield:R:3:efield_old1:R:3:efield_old2:R:3:efield_old3:R:3
Si             81.67295701     77.86884441      8.92944888      14      0.00000000      0.00000000      0.00000000       1     81.56051341     78.08586401      8.92185886       0       0      -1       0      84      0.07907332     -0.15266296      0.00529964      2.85911880    F     -0.71329716     -4.03511287     -1.08299523      0.23567166     -2.32276622     -0.19412460      0.23567166     -2.32276622     -0.19412460      0.23567478     -2.32276860     -0.19412445
Si              9.50203797     78.43136444      9.33315083      14      0.00000000      0.00000000      0.00000000       1      9.53145694     78.29325289      9.32277010       1       0      -1       0      55     -0.02074544      0.09473301      0.00718582      2.85911880    F     -0.66119138     -3.92381855     -1.69990758      0.76776989     -1.50204904     -0.45113821      0.76776989     -1.50204904     -0.45113821      0.76777861     -1.50204788     -0.45114197
Si              6.46544019     78.86251949      9.33093271      14      0.00000000      0.00000000      0.00000000       1      6.52268888     78.78106710      9.31536705       2       0      -1       0      45     -0.04001602      0.05720313      0.01082780      2.85911880    F      1.68392650     -2.91556514     -2.46309972      0.42470909     -0.19215932     -0.75508082      0.42470909     -0.19215932     -0.75508082      0.42471007     -0.19215089     -0.75508165
Si             78.62818201     78.11201668      8.93200850      14      0.00000000      0.00000000      0.00000000       1     78.50816500     78.29318823      8.92875677       3       0      -1       0      88      0.08433478     -0.12753198      0.00223261      2.85911880    F      0.05443538     -4.00719587     -1.12025956     -0.62302061     -2.00748809     -0.27513872     -0.62302061     -2.00748809     -0.27513872     -0.62302388     -2.00748366     -0.27513959
Si             74.18180437     74.95265748      9.02651105      14      0.00000000      0.00000000      0.00000000       1     74.06945867     75.05870265      9.02253423       4       0      -1       0     121      0.07974230     -0.07606809      0.00255559      2.85911880    F      0.34951406     -1.45864007     -1.38861168      0.28159864     -1.48995741     -1.24331875      0.28159864     -1.48995741     -1.24331875      0.28159026     -1.48996608     -1.24331750
Si             27.23554404     77.19457847      9.25816374      14      0.00000000      0.00000000      0.00000000       1     27.22268136     77.21278952      9.25888899       5       0      -1       0      86      0.00890169     -0.01392816     -0.00052028      2.85911880    F      0.11115609     -3.62485431     -0.88690096     -0.08992599     -2.04371515     -0.12543514     -0.08992599     -2.04371515     -0.12543514     -0.08992759     -2.04372158     -0.12543301
Si             71.71987805     76.62087594      8.95115180      14      0.00000000      0.00000000      0.00000000       1     71.61103682     76.71821797      8.94652763       6       0      -1       0      98      0.07726822     -0.06979472      0.00310487      2.85911880    F      0.10151001     -3.32832113     -0.69323731      0.12787780     -1.87253318     -0.02472384      0.12787780     -1.87253318     -0.02472384      0.12789663     -1.87253364     -0.02472180
Si             77.18477979     75.51538978      9.01961698      14      0.00000000      0.00000000      0.00000000       1     77.03683554     75.72579818      9.01475943       7       0      -1       0     103      0.10454117     -0.14826916      0.00322576      2.85911880    F     -0.00091496     -1.10090133     -1.45530176     -0.04565161     -1.42700968     -1.41171573     -0.04565161     -1.42700968     -1.41171573     -0.04564754     -1.42700970     -1.41171774
Si             88.77242788     76.02117201      8.96643761      14      0.00000000      0.00000000      0.00000000       1     88.49629952     76.37786544      8.97191427       8       0      -1       0     101      0.19424374     -0.24970935     -0.00386197      2.85911880    F     -0.39894979     -3.90768832     -0.96981085     -0.90679558     -2.06105147     -0.38030807     -0.90679558     -2.06105147     -0.38030807     -0.90679429     -2.06104964     -0.38030793
Si             91.81629272     76.00911923      8.98879546      14      0.00000000      0.00000000      0.00000000       1     91.51455093     76.46983094      8.98829867       9       0      -1       0      97      0.21218203     -0.32267964      0.00036407      2.85911880    F      0.54190399     -3.02796527     -1.10416010      0.77390512     -1.55978269     -0.34855509      0.77390512     -1.55978269     -0.34855509      0.77390689     -1.55978409     -0.34855582
Si            101.52257926     76.36264762      9.03175474      14      0.00000000      0.00000000      0.00000000       1    101.18650672     77.22139398      9.03877001      10       0      -1       0      91      0.23615589     -0.60348155     -0.00500322      2.85911880    F      0.16348266     -3.67506419     -1.23118499      0.74802171     -1.80434870     -0.40669918      0.74802171     -1.80434870     -0.40669918      0.74803688     -1.80434461     -0.40670002
Si             35.40992367     76.30061046      9.19035409      14      0.00000000      0.00000000      0.00000000       1     35.39826566     76.33526080      9.19035063      11       0      -1       0     100      0.00822757     -0.02544584      0.00000620      2.85911880    F     -0.90389046     -4.01410356     -0.95419351      0.17321232     -2.41177957     -0.39538753      0.17321232     -2.41177957     -0.39538753      0.17321399     -2.41178594     -0.39538612
Si             42.37646827     76.25918282      9.09364407      14      0.00000000      0.00000000      0.00000000       1     42.37262592     76.28470304      9.09418013      12       0      -1       0     101      0.00374264     -0.01908056     -0.00044203      2.85911880    F      0.88610801     -3.32916329     -0.66873456      0.21419299     -2.03947235     -0.08116023      0.21419299     -2.03947235     -0.08116023      0.21419125     -2.03947196     -0.08115830
Si             45.38834784     76.32434183      9.16020875      14      0.00000000      0.00000000      0.00000000       1     45.38282524     76.34316240      9.15943504      13       0      -1       0     100      0.00504255     -0.01438101      0.00051834      2.85911880    F      0.73783768     -1.92342044     -1.52817334      0.41787141     -1.86994192     -1.21733393      0.41787141     -1.86994192     -1.21733393      0.41786832     -1.86994269     -1.21733608
Si             47.64821792     78.19024248      9.07133459      14      0.00000000      0.00000000      0.00000000       1     47.65078436     78.19848153      9.07069520      14       0      -1       0      74     -0.00112650     -0.00644576      0.00041472      2.85911880    F     -1.43241462     -3.55900865     -1.24571747     -1.17370654     -1.46084636     -0.44306696     -1.17370654     -1.46084636     -0.44306696     -1.17370510     -1.46084344     -0.44306873
Si             50.33120350     76.82155080      9.06174049      14      0.00000000      0.00000000      0.00000000       1     50.33300020     76.83116660      9.06122812      15       0      -1       0      97     -0.00046252     -0.00730396      0.00037159      2.85911880    F     -0.40090425     -3.10532927     -0.97655311      0.28434727     -1.84055748     -0.37718864      0.28434727     -1.84055748     -0.37718864      0.28434390     -1.84055418     -0.37719094
Si              4.72374342     76.36145907      9.30041076      14      0.00000000      0.00000000      0.00000000       1      5.00000000     76.26424836      9.34973037      16       0      -1       0      49     -0.19310401      0.06805740     -0.03452165      2.85911880    F      3.14905258     -0.74218744     -2.35353838      0.30061935     -0.43881572     -0.75648551      0.30061935     -0.43881572     -0.75648551      0.30062133     -0.43881402     -0.75648621
Si             32.52661477     77.17546226      9.23823309      14      0.00000000      0.00000000      0.00000000       1     32.50688580     77.17938400      9.23918569      17       0      -1       0      90      0.01419790     -0.00280158     -0.00067473      2.85911880    F     -1.00174993     -2.84356841     -1.19015934     -0.85654577     -1.15935233     -0.45040299     -0.85654577     -1.15935233     -0.45040299     -0.85654231     -1.15934944     -0.45040302
Si            106.21270943     73.16722767      9.13814421      14      0.00000000      0.00000000      0.00000000       0    106.12095148     74.56822970      9.14353548      18       0      -1       0     116     -0.00139238     -0.00645299     -0.00012450      2.85911880    F      0.09351993     -0.80824232     -1.49747934     -0.10856143     -0.79429094     -0.98569406     -0.10856143     -0.79429094     -0.98569406     -0.10855801     -0.79429107     -0.98569285
Si             29.88559501     75.76902876      9.31036366      14      0.00000000      0.00000000      0.00000000       1     29.86508747     75.77957610      9.31140033      19       0      -1       0     104      0.01480305     -0.00764788     -0.00074419      2.85911880    F     -0.28847749     -1.89758947     -1.52452036     -0.29728647     -1.98195195     -1.40578405     -0.29728647     -1.98195195     -1.40578405     -0.29729277     -1.98195198     -1.40578094
Si             54.52055690     73.98538300      9.09546990      14      0.00000000      0.00000000      0.00000000       1     54.52202218     73.98300535      9.09157714      20       0      -1       0     116      0.00006092      0.00054761      0.00282893      2.85911880    F      0.41553852     -1.38389102     -1.31046978      0.28470697     -1.73072505     -1.11835424      0.28470697     -1.73072505     -1.11835424      0.28471044     -1.73072935     -1.11835426
Si             56.48616514     76.14053400      9.01601628      14      0.00000000      0.00000000      0.00000000       1     56.46087933     76.16243939      9.01321487      21       0      -1       0      98      0.01868989     -0.01623762      0.00202169      2.85911880    F     -1.31587272     -3.00005844     -0.95115783     -1.20238510     -1.58900384     -0.27852841     -1.20238510     -1.58900384     -0.27852841     -1.20238440     -1.58900293     -0.27852780
Si             59.47661370     75.81500403      9.00632576      14      0.00000000      0.00000000      0.00000000       1     59.45114491     75.83866185      9.00227159      22       0      -1       0      93      0.01887956     -0.01723193      0.00292203      2.85911880    F      0.73699284     -3.09614421     -0.93991452      0.94338393     -1.67171053     -0.34794943      0.94338393     -1.67171053     -0.34794943      0.94338082     -1.67171547     -0.34795036
Si             96.89189576     73.58689856      9.06682342      14      0.00000000      0.00000000      0.00000000       1     96.58090751     74.14372248      9.06616357      23       0      -1       0     115      0.21863423     -0.39121156      0.00044521      2.85911880    F     -0.15639856     -1.03005068     -1.65260451     -0.34804199     -1.57870850     -1.28914127     -0.34804199     -1.57870850     -1.28914127     -0.34803318     -1.57870950     -1.28914383
Si             98.47993066     76.14631513      9.01271228      14      0.00000000      0.00000000      0.00000000       1     98.21071821     76.74477996      9.02847669      24       0      -1       0      92      0.18921525     -0.42015027     -0.01113348      2.85911880    F      0.15144214     -3.74449845     -1.11139154     -0.53650333     -1.92406591     -0.37684970     -0.53650333     -1.92406591     -0.37684970     -0.53650612     -1.92406081     -0.37685003
Si             10.68622145     75.65552132      9.37754904      14      0.00000000      0.00000000      0.00000000       1     10.72983912     75.54933927      9.37367413      25       0      -1       0      78     -0.03133811      0.07196778      0.00260512      2.85911880    F     -0.30211740     -1.01755186     -1.91383603      0.23867055     -1.29850512     -1.51083429      0.23867055     -1.29850512     -1.51083429      0.23865121     -1.29851848     -1.51083541
Si             13.68585743     75.17791924      9.29754360      14      0.00000000      0.00000000      0.00000000       1     13.74235480     75.15365125      9.29267065      26       0      -1       0      95     -0.04003031      0.01642610      0.00331601      2.85911880    F     -0.75583660     -3.20471685     -0.67380942      0.14056931     -1.91173536     -0.23490902      0.14056931     -1.91173536     -0.23490902      0.14058911     -1.91171764     -0.23491410
Si             38.61494416     72.08206341      9.20762050      14      0.00000000      0.00000000      0.00000000       0     38.59180598     72.12558285      9.20818355      27       0      -1       0     140      0.00080557     -0.00078012     -0.00001610      2.85911880    F      0.21061935     -0.77546361     -1.20971130      0.29898566     -1.03024514     -1.10241540      0.29898566     -1.03024514     -1.10241540      0.29898556     -1.03024195     -1.10241940
Si             66.22500522     75.34412961      8.97664373      14      0.00000000      0.00000000      0.00000000       1     66.12919093     75.41269047      8.97317891      28       0      -1       0     102      0.06824342     -0.04912492      0.00236264      2.85911880    F      0.41598114     -2.82636907     -0.53909272      0.11448704     -1.69380691     -0.07073668      0.11448704     -1.69380691     -0.07073668      0.11449640     -1.69380316     -0.07073384
Si             84.33378453     72.83299610      9.04037613      14      0.00000000      0.00000000      0.00000000       0     84.12083465     73.07887363      9.04160319      29       0      -1       0     133      0.00125793     -0.00048516     -0.00015044      2.85911880    F     -0.16140021     -0.78052984     -1.39826875     -0.32585814     -0.99305443     -1.05230375     -0.32585814     -0.99305443     -1.05230375     -0.32586139     -0.99305356     -1.05230547
Si             22.05413013     75.12149393      9.26999649      14      0.00000000      0.00000000      0.00000000       1     22.05723342     75.09445675      9.26982862      30       0      -1       0     105     -0.00260000      0.01854549      0.00011366      2.85911880    F      1.15759146     -3.12832229     -0.58479431      0.30593314     -1.78217105     -0.11461904      0.30593314     -1.78217105     -0.11461904      0.30594342     -1.78217178     -0.11461919
Si             25.05215484     75.25469775      9.34313766      14      0.00000000      0.00000000      0.00000000       1     25.05295566     75.26020608      9.34465092      31       0      -1       0     106     -0.00088222     -0.00502417     -0.00108333      2.85911880    F      0.73272202     -1.75277502     -1.42273637      0.61285465     -1.79704809     -1.21822365      0.61285465     -1.79704809     -1.21822365      0.61285668     -1.79705156     -1.21822152
Si             61.19875010     73.41628018      9.06670550      14      0.00000000      0.00000000      0.00000000       1     61.14194424     73.41827153      9.06046882      32       0      -1       0     116      0.04116373     -0.00175393      0.00443819      2.85911880    F     -0.30357372     -1.42393529     -1.31685482     -0.15818705     -1.59896905     -1.29038919     -0.15818705     -1.59896905     -1.29038919     -0.15818306     -1.59896877     -1.29039387
Si             69.19253114     75.05839144      9.04533060      14      0.00000000      0.00000000      0.00000000       1     69.08736926     75.15794598      9.04160086      33       0      -1       0     104      0.07478310     -0.07125658      0.00250560      2.85911880    F      0.71643183     -1.80684521     -1.45211754      0.57029286     -1.61434423     -1.20289686      0.57029286     -1.61434423     -1.20289686      0.57028332     -1.61435068     -1.20290169
Si             79.50604318     73.56476887      9.03737222      14      0.00000000      0.00000000      0.00000000       0     79.30831422     73.76955919      9.03741045      34       0      -1       0     126      0.00084450     -0.00125151     -0.00022026      2.85911880    F      0.75413854     -0.36785138     -1.31997282      0.55555207     -0.97186240     -0.72010139      0.55555207     -0.97186240     -0.72010139      0.55555014     -0.97186441     -0.72010315
Si             82.19175992     75.01731453      9.02823796      14      0.00000000      0.00000000      0.00000000       1     81.97716381     75.23736015      9.02692694      35       0      -1       0     105      0.15092099     -0.15485143      0.00079554      2.85911880    F     -0.80760553     -1.54680125     -1.20251054     -0.62819668     -1.65891878     -0.99747762     -0.62819668     -1.65891878     -0.99747762     -0.62820022     -1.65891980     -0.99747569
Si             87.33596392     73.43919084      9.04074149      14      0.00000000      0.00000000      0.00000000       1     87.05909996     73.83724362      9.04239355      36       0      -1       0     116      0.19495507     -0.27876796     -0.00121204      2.85911880    F     -0.18197448     -1.36233769     -1.24979114     -0.22044995     -1.62574733     -1.31107748     -0.22044995     -1.62574733     -1.31107748     -0.22044791     -1.62574381     -1.31107943
Si             41.23069381     73.56718263      9.18572596      14      0.00000000      0.00000000      0.00000000       1     41.21185645     73.60231693      9.18615528      37       0      -1       0     128      0.01428811     -0.02594382     -0.00032514      2.85911880    F      0.09578392     -1.32715160     -1.12282604      0.17961545     -1.56987478     -1.12341084      0.17961545     -1.56987478     -1.12341084      0.17962436     -1.56987869     -1.12340596
Si             46.33412141     73.42115219      9.14899672      14      0.00000000      0.00000000      0.00000000       0     46.32773988     73.44171035      9.14723832      38       0      -1       0     122      0.00119747     -0.00122681      0.00005522      2.85911880    F     -0.12286394     -0.68546675     -1.22283054     -0.25598106     -1.29036031     -0.87907921     -0.25598106     -1.29036031     -0.87907921     -0.25597834     -1.29036317     -0.87907979
Si             51.46451905     74.03568429      9.10956373      14      0.00000000      0.00000000      0.00000000       1     51.46805081     74.04809543      9.10699310      39       0      -1       0     123     -0.00150462     -0.00918881      0.00185595      2.85911880    F     -0.35610194     -1.06459960     -1.45821013     -0.29676949     -1.43557959     -1.52548071     -0.29676949     -1.43557959     -1.52548071     -0.29676941     -1.43557966     -1.52548436
Si             93.80194904     73.76377153      9.04913140      14      0.00000000      0.00000000      0.00000000       1     93.51369480     74.18514523      9.05173779      40       0      -1       0     113      0.20272702     -0.29517924     -0.00182878      2.85911880    F      0.23168158     -1.89015702     -1.45780171      0.24454135     -1.73464851     -1.28317551      0.24454135     -1.73464851     -1.28317551      0.24454208     -1.73464589     -1.28317822
Si             98.62120994     71.00332936      9.07619272      14      0.00000000      0.00000000      0.00000000       0     98.47957966     71.59567406      9.08626669      41       0      -1       0     141     -0.00031849     -0.00255270     -0.00012813      2.85911880    F      1.18089275     -0.72895450     -1.44913785      0.63812578     -1.11994326     -0.73746664      0.63812578     -1.11994326     -0.73746664      0.63812488     -1.11992807     -0.73746700
Si             70.24752389     72.17406865      9.04832816      14      0.00000000      0.00000000      0.00000000       0     70.12601793     72.27743531      9.04401103      42       0      -1       0     130      0.00272765     -0.00104989     -0.00022090      2.85911880    F      0.10359403     -0.76620979     -1.19432105      0.24171884     -1.07236721     -1.05414722      0.24171884     -1.07236721     -1.05414722      0.24172240     -1.07236246     -1.05414740
Si             23.08557478     70.71111535      9.30853058      14      0.00000000      0.00000000      0.00000000       0     23.11516608     70.69058354      9.31155148      43       0      -1       0     144     -0.00134963     -0.00022000     -0.00000179      2.85911880    F      0.40093705     -0.21508691     -1.08069320      0.47700503     -0.61440059     -0.81162625      0.47700503     -0.61440059     -0.81162625      0.47700313     -0.61439416     -0.81161745
Si             64.24919706     73.11797793      9.06058371      14      0.00000000      0.00000000      0.00000000       1     64.19454314     73.15480622      9.05438257      44       0      -1       0     126      0.03954367     -0.02704124      0.00437209      2.85911880    F      0.17225437     -1.28484306     -1.37199811      0.11317319     -1.59198194     -1.21220299      0.11317319     -1.59198194     -1.21220299      0.11316892     -1.59198893     -1.21220749
Si              5.94717352     73.55899433      9.26335545      14      0.00000000      0.00000000      0.00000000       0      6.06607262     73.42596695      9.33099561      45       0      -1       0      66     -0.00003860     -0.00007115     -0.00010505      2.85911880    F      3.85738940      1.48992078     -1.41740136      1.89342550     -0.44754808     -0.46785752      1.89342550     -0.44754808     -0.46785752      1.89342916     -0.44753044     -0.46785477
Si             17.84380336     71.52874505      9.33040781      14      0.00000000      0.00000000      0.00000000       0     17.86599079     71.49314324      9.33347283      46       0      -1       0     132     -0.00138347     -0.00045356     -0.00008232      2.85911880    F      0.14293598     -0.83498591     -1.10105502      0.24638513     -1.05022044     -1.04473230      0.24638513     -1.05022044     -1.04473230      0.24638731     -1.05022122     -1.04473355
Si            101.69262855     71.21189609      9.09562398      14      0.00000000      0.00000000      0.00000000       0    101.44133326     71.98804824      9.10385690      47       0      -1       0     142      0.00015713     -0.00399572     -0.00016885      2.85911880    F     -0.63219102     -0.45305329     -1.45775068     -0.24142026     -1.10316621     -0.74396516     -0.24142026     -1.10316621     -0.74396516     -0.24142912     -1.10317209     -0.74396623
Si              8.91992086     73.15466521      9.33652465      14      0.00000000      0.00000000      0.00000000       0      9.10903920     72.96077671      9.33514501      48       0      -1       0      91     -0.00029890     -0.00307156     -0.00025007      2.85911880    F      1.00804272     -0.52049211     -1.72134592      1.26642972     -0.70959624     -1.45650929      1.26642972     -0.70959624     -1.45650929      1.26643775     -0.70958377     -1.45650469
Si             15.03043196     72.56450439      9.34168448      14      0.00000000      0.00000000      0.00000000       1     15.04289686     72.52517878      9.34491762      49       0      -1       0     126     -0.01055625      0.02623562     -0.00236391      2.85911880    F      0.42206032     -1.35497590     -1.16920630      0.52134629     -1.59931748     -1.35087281      0.52134629     -1.59931748     -1.35087281      0.52134451     -1.59932175     -1.35087084
Si             20.66464268     72.50437995      9.32677114      14      0.00000000      0.00000000      0.00000000       1     20.68477266     72.46495948      9.32777529      50       0      -1       0     126     -0.01553625      0.02774441     -0.00070954      2.85911880    F     -0.11203557     -1.24824017     -1.15448682      0.01182901     -1.35023388     -1.33313615      0.01182901     -1.35023388     -1.33313615      0.01182447     -1.35023505     -1.33313925
Si             30.29483309     72.81114625      9.27806066      14      0.00000000      0.00000000      0.00000000       0     30.25925148     72.83219662      9.27992533      51       0      -1       0     132      0.00079505     -0.00054466     -0.00000352      2.85911880    F      0.56758114     -0.65105725     -1.25434455      0.46299544     -1.07376199     -0.77020755      0.46299544     -1.07376199     -0.77020755      0.46299814     -1.07375200     -0.77019842
Si             33.16426129     71.96630690      9.25479633      14      0.00000000      0.00000000      0.00000000       0     33.12843317     72.02358474      9.25611136      52       0      -1       0     136      0.00061326     -0.00173443     -0.00001710      2.85911880    F     -0.57928202     -0.59752980     -1.11810921     -0.55226806     -1.21306902     -0.77576597     -0.55226806     -1.21306902     -0.77576597     -0.55226936     -1.21307012     -0.77576293
Si             43.74214567     71.78469770      9.16631890      14      0.00000000      0.00000000      0.00000000       0     43.72470591     71.82572944      9.16529974      53       0      -1       0     135      0.00118391     -0.00141776      0.00005005      2.85911880    F      0.06947306     -0.50253860     -1.19585793      0.10883501     -0.87837362     -0.99926393      0.10883501     -0.87837362     -0.99926393      0.10882840     -0.87837476     -0.99926235
Si             73.30911767     72.02750158      9.04834018      14      0.00000000      0.00000000      0.00000000       0     73.19370299     72.15011158      9.04483202      54       0      -1       0     131      0.00270686     -0.00227632     -0.00026738      2.85911880    F     -0.16091878     -0.39397105     -1.19165548     -0.00662174     -0.75031672     -1.07250070     -0.00662174     -0.75031672     -1.07250070     -0.00661365     -0.75032766     -1.07250367
Si             92.40000875     71.04554465      9.06282148      14      0.00000000      0.00000000      0.00000000       0     92.09363990     71.48871349      9.06060277      55       0      -1       0     138      0.00124702     -0.00049287      0.00004855      2.85911880    F     -0.44112180     -0.53488260     -1.23906753     -0.30402460     -1.28586528     -0.89081031     -0.30402460     -1.28586528     -0.89081031     -0.30403689     -1.28586600     -0.89080895
Si             49.09260949     72.12360323      9.13058065      14      0.00000000      0.00000000      0.00000000       0     49.08746883     72.14839001      9.12733089      56       0      -1       0     138      0.00140167     -0.00124871      0.00009768      2.85911880    F     -0.55201228     -0.55405465     -1.27415203     -0.57035861     -0.99147124     -1.01660890     -0.57035861     -0.99147124     -1.01660890     -0.57036538     -0.99146884     -1.01660635
Si             89.32904254     71.08748853      9.05388292      14      0.00000000      0.00000000      0.00000000       0     89.03956621     71.49576687      9.05619962      57       0      -1       0     141      0.00113999     -0.00024174     -0.00002984      2.85911880    F      0.30980212     -0.90764524     -1.19209203     -0.06003984     -1.19560625     -0.80841321     -0.06003984     -1.19560625     -0.80841321     -0.06003949     -1.19560735     -0.80841286
Si             25.65861705     72.32058865      9.30851536      14      0.00000000      0.00000000      0.00000000       0     25.66304692     72.33047626      9.31090160      58       0      -1       0     126     -0.00046657     -0.00131740      0.00000030      2.85911880    F     -0.33857538     -0.83154136     -1.09090455     -0.30229428     -1.16759881     -0.81959283     -0.30229428     -1.16759881     -0.81959283     -0.30230095     -1.16760723     -0.81959153
Si             28.20019010     70.63253587      9.28173824      14      0.00000000      0.00000000      0.00000000       0     28.19648564     70.63060635      9.28414988      59       0      -1       0     150      0.00020626     -0.00033863      0.00002384      2.85911880    F     -0.21855160      0.01641065     -1.20211355     -0.04268295     -0.18125421     -1.01142353     -0.04268295     -0.18125421     -1.01142353     -0.04267827     -0.18124701     -1.01141965
Si             56.18111858     71.43886327      9.10258612      14      0.00000000      0.00000000      0.00000000       0     56.16385068     71.42957039      9.09473593      60       0      -1       0     127      0.00164762     -0.00096905      0.00015219      2.85911880    F     -0.12086927     -0.66694592     -1.04856362     -0.30834045     -1.28999565     -0.91015021     -0.30834045     -1.28999565     -0.91015021     -0.30834326     -1.28999593     -0.91014935
Si             59.21896610     71.07614653      9.08868942      14      0.00000000      0.00000000      0.00000000       0     59.20102162     71.04958159      9.08024477      61       0      -1       0     133      0.00179731     -0.00071146      0.00014215      2.85911880    F     -0.03565443     -0.65361759     -1.16887207     -0.01799901     -1.20317731     -1.00141556     -0.01799901     -1.20317731     -1.00141556     -0.01800816     -1.20317685     -1.00141996