7931
energy=-151593.29044404 time=20000.00000000 temperature=302.44817955 cutoff=10.58354498 nneightol=1.20000000 pbc="T T T" Lattice="264.57335402       0.00000000       0.00000000       0.00000000      82.43324632       0.00000000       0.00000000       0.00000000      19.87617225" Properties=species:S:1:pos:R:3:Z:I:1:momenta:R:3:force:R:3
Si             81.66951971     77.91089674      9.16303085      14     -1.06706490     -0.32652462      1.05794288     -0.67825580      0.45632084     -0.58565583
Si              9.50203797     78.42764177      9.33315083      14     -0.00000000     -0.89600053     -0.00000000     -0.30125034      1.23864758     -0.37995244
Si              6.46544019     78.93374062      9.33093271      14      0.00000000      0.41869911      0.00000000      0.80280232      0.24999412     -0.23608557
Si             78.71213885     78.14901324      9.24431597      14      0.47717771      1.12317692      0.85750366     -0.43197073     -1.04394711      0.51321285
Si             74.27995090     74.95838867      9.12283622      14      1.55433062     -1.36530657      1.51920250     -0.39101854      0.67153892     -0.47307451
Si             27.33781832     77.22362094      9.10612628      14     -0.05234380     -1.29758986     -1.09581245      0.11751933      0.46847089     -0.50185495
Si             71.77822245     76.65343804      8.99745785      14     -0.98428300      0.05351703      0.34244859     -1.13677999      1.65383334     -1.21798673
Si             77.30779173     75.42952351      9.12599609      14     -1.73209504     -0.43412415     -0.48399782     -0.96298861     -1.22210494      0.84068036
Si             88.86830342     75.96982634      9.00568953      14      1.17757997     -1.10768361     -0.49913154      0.82840045      0.32376877     -0.17240377
Si             91.90972979     75.92760775      9.05011277      14     -0.36399090     -0.14505386     -1.29966192     -1.57851284      0.11198951     -0.68402588
Si            101.54026994     76.33925156      9.01025377      14      0.79044676      0.26311183      0.28549934      1.69312610     -0.52035381      0.08050294
Si             35.39509547     76.25281889      9.18300287      14     -0.37354656      0.07681794      0.13216441      0.97164549     -0.79344290      0.74573038
Si             42.53100677     76.03125969      9.17086724      14      0.31085605      0.58059502     -1.18019298     -0.49280380      0.92543121     -1.25051047
Si             45.50503271     76.31611496      9.23225669      14     -0.10534863     -1.28855279      0.30101376      2.26223298      0.08428659     -1.21170810
Si             47.56836723     78.23426046      9.07684747      14      1.81404708     -0.19529440     -1.63618557      1.18928114     -0.70498684     -0.04226949
Si             50.14157274     76.65574571      9.00069990      14      0.15703830     -0.28661064     -0.95815308      0.09687573     -2.12959239      2.05954873
Si              4.72374342     76.47936605      9.30041076      14     -0.00000000     -0.44059299     -0.00000000     -1.22624414      0.58530282     -0.51592478
Si             32.49052912     77.23477189      9.30742383      14     -1.49911291      0.02596996      0.25725780      1.86081589     -0.11898119     -0.96022447
Si            106.16180211     72.96065587      8.97366348      14     -0.11117610      0.20024611      0.24210001      0.86371807      0.11758942      0.86553931
Si             29.89846370     75.76847471      9.25964912      14      0.66788189     -1.25701782      0.12099449      1.55430987      0.11492600      0.40955979
Si             54.62595962     74.04799464      9.09891054      14     -0.91487355     -0.14709771     -1.56554179      0.66386337      0.15151916     -0.58417864
Si             56.63881466     76.09293646      9.00557496      14     -1.31078686     -0.50003757     -1.11819204     -1.51560300      0.43008171     -0.22119109
Si             59.54347180     75.79373070      9.01618539      14      0.12789068     -0.60205595      0.26627169      0.38455445      0.57273688     -0.58129426
Si             96.94341608     73.50443594      9.14239070      14     -0.01979790     -1.03351269      0.79243513      0.18712151     -2.37084137     -0.04567779
Si             98.59656470     76.01081950      8.98600362      14      0.08686826      0.63740771     -1.63344503      0.34001590      0.28191070     -1.09754961
Si             10.68497863     75.70691836      9.28403151      14      0.25331534      0.11390142      0.58377424      0.87599765      0.26812575      2.58685452
Si             13.74402914     75.20869787      9.17618955      14      0.54962398     -0.47109053     -0.11674659     -1.30048944      0.57931890      1.21832408
Si             38.69402537     72.12805802      9.10205126      14     -0.19392945      0.00305313     -1.01249481      0.64603946     -1.20031585     -0.16760743
Si             66.40428779     75.35394748      8.95371099      14      0.01897439      0.85743464     -0.39660264     -0.23910959      0.82569604     -1.04517463
Si             84.33989037     72.77066963      9.12411703      14      0.47016088      0.30339451      0.20212827      2.14927141     -0.39919380     -0.36756440
Si             22.24938061     75.03272644      9.17521913      14     -0.11750805      0.74620701     -0.62345512      0.60695657      0.30623586      0.82322989
Si             25.26332351     75.25107269      9.27763621      14     -1.36643257     -0.67017146      0.42841376     -0.45556335     -0.76829608     -0.74597156
Si             61.28078133     73.40297925      8.96329339      14     -0.85272880     -0.32484238      0.49539343     -1.32369379      0.27872054      0.11530184
Si             69.29843037     75.08252868      9.10094324      14     -0.35443284     -0.99453694     -1.24999950     -0.53067832      0.21541082      1.04026230
Si             79.57050562     73.45552490      9.17761335      14      1.70408611      0.94814906     -0.19300716     -0.83163528      0.88019383     -0.03722558
Si             82.24516914     75.03526932      9.05278999      14      0.90502225     -0.41681287      0.17208290      0.64160537     -2.05884146      1.91089212
Si             87.39862736     73.37659569      8.91982158      14     -0.28337567     -0.53896269      1.06966398      0.34954229     -0.59699150      1.63088845
Si             41.32780614     73.52792300      9.17351757      14      0.05687024      0.18541945     -0.75698460     -1.24920575     -1.25323043     -0.72330337
Si             46.51876760     73.38520284      9.21825097      14     -0.59518837     -0.47252644      0.14642532     -0.13954004      1.42994127     -0.13061091
Si             51.58275156     73.92559239      9.02931378      14     -1.70205047     -0.29538610      0.42663183     -0.16603080      0.03119880      0.94332017
Si             93.92529579     73.62392843      9.13660279      14     -0.21498193     -0.23461568     -1.09263226     -0.28140863      0.41458851     -0.62022230
Si             98.66268776     70.85346784      9.08772527      14      1.46399149     -0.06185754      0.06899120      0.70099372      0.25658835      0.09588430
Si             70.36128983     72.14481235      9.16166151      14      1.61192465     -1.04075667     -0.11871665     -0.76817966      1.59532810      0.57227665
Si             23.04942003     70.73603038      9.25842193      14      0.31753154     -0.20321722     -0.36214550      1.58586456      1.21310429     -0.83949800
Si             64.37631241     73.19707538      9.04316947      14     -0.24348993     -1.34428255     -0.52828239     -0.47469604      1.47850621      0.93707663
Si              5.94717352     73.65494473      9.26335545      14      0.00000000      0.80322276      0.00000000     -0.80761651      0.95192792     -0.29101721
Si             17.88508004     71.59563813      9.25699841      14     -0.40570761     -1.78630720      0.62290534     -0.86423537     -0.39932052      0.41061412
Si            101.77831728     70.99150746      9.07189365      14      0.88988928     -1.03681846      0.28727550      1.39053318      0.63687443      1.03202585
Si              8.91992086     73.18796279      9.33652465      14     -0.00000000     -2.02792342     -0.00000000      0.00776674      2.10875111      0.22844811
Si             15.03959791     72.60534352      9.34804316      14     -0.32083968     -0.36643684      0.70217524      1.93293825     -0.17782870      1.05121771
Si             20.71303586     72.45769256      9.20034267      14      0.86754823      0.15693492     -0.29238628      0.78692063      0.37598011     -0.66918660
Si             30.27303575     72.72748832      9.16261777      14     -1.05761606     -0.68129845     -0.85132866      0.81782281      0.46949799      2.19070747
Si             33.20816216     71.91355979      9.05727408      14     -0.37986678      0.01044859     -0.69710532     -1.83725330     -0.48966736      1.21827732
Si             43.93428839     71.76890779      9.09833860      14     -0.98986072     -0.50320217      0.38387112      0.29359376      0.21054300     -0.58938150
Si             73.41533031     72.01187939      9.15247094      14     -1.22950207     -1.30598395      0.72810361      0.55244865     -0.61313859      0.87266251
Si             92.53397348     70.93037318      9.07657099      14      1.35661550     -0.90871942      0.38837408      0.34363363     -0.80385830     -0.29666182
Si             49.22013370     72.02157549      9.21923549      14     -0.53050860     -0.46162786     -0.96525389     -0.03310308      0.43261350     -1.51268272
Si             89.37022633     71.03125999      9.11611788      14     -0.37913957      0.55171306     -0.30242731     -1.01667900     -0.60494014     -1.60905307
Si             25.63024548     72.29259861      9.26025706      14      1.05033338     -0.80230363     -0.68192810     -0.59915506     -0.74349208      0.66574208
Si             28.13518665     70.61703976      9.32999169      14      0.75785335     -0.44784235     -0.46739616      0.84581595     -0.93281705     -0.24048790
Si             56.23348592     71.50017559      9.16679745      14      0.09443001      1.42577601     -0.50948214      0.55194298     -1.44961758     -0.70780829
Si             59.28276124     71.04955814      9.04700438      14      0.22364409     -0.96443157     -0.60112036     -0.71900187     -0.72569155     -0.05292204
Si             10.14916820     70.37131737      9.31332010      14      0.35448134     -1.56844626     -1.16418701      0.34277306     -1.09922874     -0.50835483
Si             65.53975959     70.42069546      9.18602137      14     -0.29022238     -0.86354014     -0.20909512      1.40269633      1.14225889     -0.27166938
Si             68.59623853     69.71306859      9.22630784      14      0.89630686      1.37156106      1.14473145      0.03590923     -0.55099868      1.30401465
Si             13.26419147     70.12302562      9.42060450      14      1.66549650     -0.39554114     -0.58801151     -0.11067425     -0.64797683      1.20322718
Si             74.94870030     69.37197557      9.19235441      14      1.13832528     -1.10067279      0.51831840      1.29703938      0.85786526     -0.80912913
Si             95.92209227     66.27514313      8.94415775      14     -1.51964762      0.74192016      0.56234454      0.54150204     -0.58081307     -1.58934857
Si             52.01474635     67.75991149      9.26455910      14      0.92016398      0.36620337      0.99921145     -0.68682745     -3.73015368      0.18218843
Si             77.85941740     68.67298920      9.17283860      14     -1.12221039     -0.86857824      0.17819595      0.48015070      1.06776829      0.40935256
Si             80.32237206     70.48466614      9.10663988      14      0.58933395     -0.34567183      1.92632690      2.70181729      0.40985255     -1.12733034
Si              8.69904743     67.74766444      9.23429213      14     -0.00000000     -0.49422262     -0.00000000     -0.36057456     -0.96674230     -0.51732747
Si             36.15569489     67.62465300      9.25949909      14     -0.26781014      0.05278260      1.63639946     -0.01282082      0.75916185      0.28766139
Si             54.73029950     68.81189889      9.16524986      14     -0.13766958      0.11047899      0.21960145      1.62073495      0.11237885      0.31678454
Si            103.02307110     68.17349018      9.01520896      14     -1.31435641     -0.08964217      0.64806854      0.10773132     -0.34712877      1.00109677
Si            105.19172636     66.20593774      9.10645891      14      0.54495074     -0.83854333      0.13732955     -0.78842758      1.35162126     -1.73170026
Si             17.95778257     68.51779398      9.35693543      14      0.15523123      0.04785484     -0.43298059     -1.45488584      0.29053384      0.05809815
Si             38.86472390     69.06063757      9.18786527      14      0.18541390      0.52924484     -0.86166167     -0.92271994     -0.43846544      0.41166449
Si             49.29496984     68.88560623      9.11991304      14      2.18529675     -0.69216354     -0.31388060     -1.86817642      3.40471834     -0.46810317
Si             88.43686523     68.12261587      9.17890642      14      1.38512961     -0.33067233      0.90830200      2.09584578     -1.45602496     -0.83314564
Si             33.31822603     68.80315202      9.19904614      14     -1.02774809     -0.11846536      0.28181080      1.06857353      2.18100473     -0.66083115
Si             85.39716808     67.58996217      9.20110199      14     -0.18970915     -0.32676131      0.04433000     -1.60043394     -0.13662022     -1.83228801
Si             98.65505414     67.81521970      8.99282838      14     -0.44922287     -0.46129762      0.89037295     -1.59710449      1.06928671     -1.81186467
Si             46.71925501     67.33547970      9.13320348      14      0.57930579     -2.02022366     -0.12432788     -0.82878761      1.84642214      0.09926025
Si             60.60662990     68.30974894      8.97391717      14      0.79080599      0.19641478     -1.71425891      0.38875861      0.04085618      2.40466955
Si             63.64174316     68.01200965      9.07355165      14      0.41583744     -0.11358912     -0.33366358     -0.10355805      0.82217380      0.02225856
Si             93.40648520     68.04871971      9.00049842      14     -0.21634533     -0.37380738     -1.68601451      0.37801744     -0.00555469     -0.01269680
Si             43.92811456     68.67385087      9.15690402      14      0.81012854     -0.25096111      0.18910794     -0.90055391      2.14525616     -0.64588365
Si             70.15384075     67.10074165      9.24731845      14     -0.29037575     -2.19926232      0.63817308      0.65230095     -2.41068104     -0.04260904
Si             73.20625681     66.81459450      9.25076268      14      0.13000346      2.18833931     -1.78237624     -0.38639878      0.12241649      0.68567139
Si             90.91978952     66.27856928      9.03116953      14     -0.93076851     -0.26988604     -0.01178085     -0.77111732     -0.78773403     -0.32555079
Si             31.20342450     66.78898606      9.26567522      14     -1.33351623      0.84082667      0.91789671      1.12215651     -1.67153127     -1.47820370
Si            100.91827089     65.84491053      9.03862637      14     -0.20548583     -0.75208676      0.22468884     -0.93641408      0.71147720     -0.88777477
Si             15.00418204     67.67381896      9.30754237      14     -1.48755376      1.39506285     -0.91926918      1.28140346      0.68663610      2.11354507
Si             28.30798539     67.48304084      9.34336601      14      2.16411770     -0.51153278     -0.66171361      0.04097564      2.69147146     -1.10148307
Si             41.25343118     67.25763816      9.27501759      14     -0.32480945      0.25900059      0.25028533      1.14210085     -1.59205089     -1.20271863
Si             20.45090508     66.73184068      9.40282408      14     -0.03553047      0.68388520     -0.23296600     -1.21118751      1.10744558      0.70484253
Si             23.31156163     67.72530342      9.31756572      14     -0.99541310     -0.72909039      0.02250658      0.92791172      1.37547441      0.60373453
Si             55.99243877     66.06398952      9.23272289      14      0.56414022     -0.26944090      0.46360665     -1.37610996      1.01103073     -1.13858924
Si             58.94447511     65.75064298      9.12324717      14     -0.70168089      0.33823108     -0.56973503     -0.32356933      0.21180535     -0.52760329
Si            105.50770822     63.44360436      9.03578045      14      0.08011509     -0.40554321     -1.05692859      0.11387800     -2.39196911      0.68727663
Si             25.75589602     65.91402025      9.38625923      14     -0.25533212      0.67977743      0.02097957     -0.98356786     -2.27211536     -0.48613556
Si             14.33251250     64.75019901      9.50608409      14     -1.67099512     -0.04496905     -0.20315545     -0.33067983     -1.32074074     -3.36894620
Si             78.15079459     65.62282421      9.31346053      14     -0.08287538     -0.10425169     -0.78760129      1.51755653     -0.47339366     -0.59564008
Si             11.58210750     63.39842933      9.24910554      14      0.06436071     -0.71660833      0.25078979      1.97660696      0.14185547      0.54438167
Si             65.26759539     65.35179828      9.20145212      14     -0.15361495     -1.84683941     -0.31472052     -1.07816877      1.01922104      0.03295944
Si             68.19879914     64.83201029      9.23993800      14     -0.38191148     -0.01664206     -0.14221701      0.48285964     -2.08455419      1.11026886
Si             46.55133194     64.34577986      9.12588564      14      0.03913776     -0.82587762      1.04017707     -0.21274796     -0.33468799      0.24138002
Si             75.22889829     64.52148503      9.26336943      14      0.23271806      0.49151133      0.50914131     -0.87669441     -0.64968747      0.76232396
Si             85.60187776     64.57044033      9.24536634      14      0.18204350      0.11265530      0.28899516      1.01240849     -2.26701968     -0.91067967
Si            103.72063933     60.89008940      9.02518740      14      1.24430812     -0.40781155     -1.50672257      1.04663883     -0.80224601     -1.96693880
Si             80.27816817     63.38022121      9.24126771      14     -0.13324712     -0.13972998     -1.08410624      1.19364960      2.05148770     -0.85697328
Si             88.28179467     62.97855497      9.12955974      14     -0.35448847      0.18516446     -1.23534124     -0.87307161     -1.28426996     -1.54593011
Si             91.33211225     63.33054316      9.09208928      14      0.37825249      0.16227907     -0.44014809     -0.27661072      1.94657179      0.32131538
Si            101.26556728     62.78151590      8.93816073      14      0.01397284     -0.37434376     -0.12562139      0.82101063     -0.00777398     -1.58017137
Si             16.82687766     62.86569607      9.33073379      14     -1.35122217      0.51635294      0.44746616     -1.30359867      1.47568142      1.76386115
Si             35.81395005     64.63215047      9.35410740      14     -0.32252280      0.27467133      1.19549238      0.24599382      0.36689408      0.75394426
Si             41.05145190     64.22032878      9.34555462      14      0.93585236     -0.13800330     -0.10234062     -0.95170261      0.65669091     -0.28661103
Si             83.23581882     62.64245559      9.18861044      14      0.14337206     -1.68385663      0.90829912      0.65146383      0.74445027     -0.27694751
Si             96.27026961     63.28130252      8.74794675      14     -0.75927564      0.72073004     -1.00566775      1.98956690     -0.59431619      0.33704990
Si              8.92018307     64.77413439      9.25839406      14     -0.00000000     -1.19642369     -0.00000000     -0.13890251      0.94738909     -0.13643981
Si             53.19364011     64.85486637      9.29228025      14      0.20728931      0.46402714      1.89116770     -1.31211643      2.02924950     -0.84548696
Si             60.41119132     63.10562475      9.06946188      14     -1.07901634      0.11713115     -0.32754849      0.70335009     -0.27161657     -1.22741663
Si             98.54918671     61.24325998      8.78380036      14     -1.20840659      1.24565205      1.00843124     -1.16140998     -1.66821894      0.74950823
Si              7.01724175     62.49707710      9.15573018      14     -0.00000000     -0.14366547     -0.00000000      0.14424783     -1.28433930      0.18887195
Si             32.76720272     64.18926745      9.36893622      14     -0.64478891      0.88853961      0.81738177      1.17725825     -0.03663308      0.33076438
Si             51.69171631     62.23508829      9.24802475      14      1.27321158     -0.00978991     -0.78414796      1.53232543      1.21151966     -0.11752376
Si             48.70502864     62.26501728      9.34539517      14      1.35798580      1.06619115     -0.09519083     -0.75393124     -0.79117563     -0.31433633
Si             24.93576597     62.93582344      9.31115638      14     -0.95934668      0.71621070      0.84957146     -0.05133366      1.18018486      1.22689438
Si             43.80119170     62.97037553      9.27876669      14     -1.05970631     -1.33238048      0.14728298      0.61203280     -0.06979898      1.08983102
Si             63.49306405     62.85701582      9.27959134      14      0.88490682     -0.82434774      1.26396236      0.26009783      0.97336532     -0.45960172
Si             93.78490135     61.59217671      8.99287645      14      0.24554496      0.85203385     -0.01964957      0.35943993     -0.95041702     -1.30760310
Si             19.73303690     63.77583764      9.42489632      14      0.11613938     -0.73292484      1.61643182      0.07906624     -0.04404583      1.32134196
Si             22.09919673     61.97311082      9.39136050      14      1.09886125      0.11567682      0.13373551      0.01653459      0.79145677     -0.05456141
Si             38.22108216     62.89739925      9.41410410      14      0.37400372      0.02649465      0.40867924      1.12175522     -1.62468901     -0.61621168
Si             65.55321862     60.75677849      9.36032028      14     -0.31739613      0.40726079      0.02144837     -0.26371125     -2.31125811      0.04750966
Si             84.44404237     59.82929824      9.11107435      14     -0.14099575     -1.60817912     -1.27584114      0.35372943      0.74885670      0.56188864
Si             87.58042522     59.95601026      9.07924020      14     -0.46822014     -0.89298529     -0.36114036      0.37699020      0.81921776      0.83734538
Si             29.57874645     59.78509201      9.49189360      14     -0.37835724      1.02557346     -1.06212303     -2.03617760     -0.62123626     -1.24921365
Si             75.37715477     61.51241989      9.20732012      14      1.58302770     -1.99533512      0.76809885     -0.56469623      0.23968561      1.21218373
Si             32.25597401     61.18363878      9.51967193      14     -0.70711606     -1.73768581     -1.31176639     -0.46893117      0.19384247      1.33730907
Si             56.16623648     59.21497876      9.30646734      14      0.54760154     -0.85058427     -0.22092034      0.24192122     -1.61472431     -1.22444814
Si             78.41980849     60.92058757      9.20824341      14      0.28209503     -1.04104954      1.09710449     -0.05089733      0.57274355      0.09838435
Si             11.21863224     60.32688968      9.33366597      14      0.48177086     -0.58414743     -0.42268863      2.00539750     -0.56755060     -1.60271909
Si             26.56339080     60.34037421      9.45653187      14     -0.66843845      0.43845358      0.90057068     -0.08004706     -1.25913220      0.17691107
Si             53.16962890     59.56883995      9.28448549      14     -1.05860893     -0.76985234     -0.46207398      0.86419922     -1.29216990      0.78136844
Si             58.81405965     60.53819992      9.24415310      14     -0.34546389     -1.64945039      1.36937674      0.19122840     -1.50903932     -1.21572727
Si            105.15172088     58.05495329      8.93581886      14     -0.67833796      0.03615385      2.26436002     -2.12157498      1.77614865     -0.70274904
Si              8.24815679     59.72746350      9.20890178      14      0.00000000      0.85414093      0.00000000     -0.58892036     -0.68721126     -0.11517101
Si             44.37444087     59.93388715      9.45846460      14      0.67240024     -0.03888658     -0.18300672      0.98482315     -0.67730325     -0.36202279
Si             47.32750504     59.39938464      9.45276808      14     -0.88503297      0.00548827     -0.36518694     -1.54660705      1.24782629      0.81702508
Si             70.30690302     59.35117715      9.25587154      14      1.22581097      0.11868812      0.28689689     -0.41187600     -1.69081973      0.25776475
Si             73.40626703     59.21031275      9.28334917      14      0.96551614     -0.17547754      0.92805332     -2.17665365      0.51249372     -1.36317584
Si             89.80891766     57.69366311      9.09187547      14      0.56277621      0.67568918      1.21320452     -0.88165502      2.30918116      0.05318642
Si            103.44487066     55.51264456      8.97342492      14     -0.76938751     -0.22073268     -0.11715899      0.27498227     -1.51354229      0.29843667
Si             92.75206196     57.13909136      9.05730267      14      0.05216161     -0.92604490     -0.06672942     -1.65483065      0.65069025     -0.82255188
Si             95.26138401     58.83518860      8.99374658      14     -1.50730134     -0.02410281     -0.35078185      2.12629775      0.87998793     -0.16981571
Si             98.36026179     58.13840928      9.05576340      14      0.13132190      1.64868704      0.16227196      1.36625935      0.30779834     -2.45821845
Si             16.51435134     59.87572339      9.32842479      14     -0.07474540      0.05946322     -1.58568736     -0.63379152     -0.25990553      0.43242742
Si             21.80427871     58.88584820      9.37467287      14      0.49317262     -0.68123869     -2.12009509      0.11277967     -0.54611570      0.74663336
Si             34.62780122     59.15484430      9.57696718      14      1.02727818      0.58297135      1.28019970     -0.89646686     -0.27906086      0.00575013
Si             42.54745442     57.48472861      9.41998247      14      0.24049126      1.55889363     -0.00661087     -0.31371530     -1.34125861      1.56760407
Si             13.69495770     58.44710889      9.38395064      14     -0.69742774     -0.33012699      0.32579164      0.10030907     -0.14023608     -0.78371117
Si             37.55045334     59.81837586      9.46569165      14      1.67951313     -1.73872364      1.63431832      2.35413166      1.15955972     -0.84530611
Si            100.38491562     55.61409545      8.97789181      14      0.09826981     -0.35621438      0.31915433     -0.48560235      1.37268066     -0.18557365
Si             79.67199240     58.24525181      9.14598858      14     -0.70284572      1.29859651      0.11643392     -0.69327139     -0.83226605     -0.72530932
Si             65.59045369     57.65399564      9.32726419      14     -0.20782167     -0.95853668      1.17203522      1.77713600      1.65241231      0.36707200
Si             82.65948777     57.39678191      9.05503887      14      0.09392751     -0.86123701      0.40293013     -0.75737406      1.24531949     -0.03049954
Si             18.91408304     57.96348948      9.33507598      14     -0.15314095      1.12520463      0.37279456     -0.53885149     -1.91521881      0.16781985
Si             24.63617226     57.93207321      9.49713487      14      0.38937174      1.35878204      0.45849486     -0.99786549     -0.48531582      1.29819321
Si             51.74061511     56.82054842      9.40185980      14     -0.80567552      1.28429817     -0.90004529      1.85299495      1.11273303      1.58489241
Si             48.77482431     56.75806417      9.46865642      14     -0.11388740     -1.41062520     -0.19743800     -2.41362941      0.31938265     -0.39177436
Si             68.52278295     56.75512803      9.39095154      14      1.30219942     -0.32792439     -0.17467594      0.27704846      0.96203907     -0.72337327
Si              7.19107844     56.90385922      9.13662932      14     -0.00000000     -0.84366191     -0.00000000     -0.03329905      0.08270064     -0.09745072
Si              7.80582785     54.03800975      9.16602965      14     -0.00000000     -0.68878430     -0.00000000     -0.78197006     -0.83691139     -0.36678884
Si             39.45913863     57.50496273      9.51122382      14      1.18331254      0.32047048      0.51003503     -0.98387685     -1.94811183     -0.66159682
Si             28.48616328     54.36530956      9.53136943      14     -1.13357513     -1.54526128     -1.39033869      1.03058199      0.82074894     -1.10030135
Si             33.28193535     56.41289480      9.47476885      14      0.65305158     -2.08132130      0.83038731     -0.28677197      0.76520384      0.15823962
Si             62.90778647     56.36481214      9.37110107      14      0.05980130      0.92843991     -1.76425235      0.72294233     -1.18509038      0.84166276
Si             74.46995568     56.38570973      9.23644248      14     -0.15390472     -0.93413652      0.90555354     -0.02011799     -1.32507853      0.04426308
Si             77.53099843     55.95252174      9.16621158      14     -0.32283654     -0.94289571     -0.63465942     -0.42814956     -1.29424746      0.54610996