7898
energy=-150954.71243066 cutoff=10.58354498 nneightol=1.20000000 pbc="T T T" Lattice="263.80541928       0.00000000       0.00000000       0.00000000      82.43324632       0.00000000       0.00000000       0.00000000      19.87617225" Properties=species:S:1:pos:R:3:Z:I:1:momenta:R:3:force:R:3
Si             26.22009409     78.30288804      8.85525237      14     -0.93370030     -1.25157875     -0.90931502      0.65977736     -1.46953113      0.39450939
Si             23.27543727     78.16377891      8.90968952      14      1.62313581     -1.22993896      0.08837955     -1.79991502     -0.61285438      1.35849895
Si             18.79518796     75.04806406      9.12081865      14      0.16173728      0.35452726     -1.07726023      1.46919689     -1.31436907      1.22554273
Si             16.31160148     76.56305376      9.01886062      14      0.22282483      0.40853412      1.13598321     -0.61588936      0.30485740     -0.09388594
Si             21.77241711     75.60744667      8.95970398      14      1.81737577     -0.14624745      1.32968300     -0.10674278     -0.91883784      2.13618940
Si             33.11433811     76.39965025      8.95411442      14      1.08582603      1.42287892     -0.73356482      1.37963881     -0.32058124      0.38494061
Si             36.15993340     76.48432033      8.89001278      14      0.01924917      2.15967945     -1.33349160      0.13039738     -0.46942496      0.45521101
Si             45.91736690     77.36637409      9.14858603      14     -2.30889905      0.75643761     -0.30984098      0.14282668     -0.47473702     -1.24755433
Si             50.80513261     75.05362206      9.20590817      14     -0.31195307     -0.68788425     -0.80015303      3.50291774      1.13462244      1.23043409
Si             41.27711659     74.57370386      9.15554402      14      0.73278951      1.51015899      0.19610589     -0.76703847     -1.81962226     -1.08356747
Si             42.94415312     76.95353633      9.01147970      14      0.23358211     -0.34165522      0.10832702      1.53194177      0.85666486     -1.98547141
Si             10.69792108     75.33463902      9.01125976      14      0.83818955      0.53242313     -0.49556807     -0.24933030      0.73914563     -1.59236446
Si             28.74913905     73.13817758      9.06114117      14     -1.62185513     -0.00843788     -1.47111935      0.94573594      1.40664188      0.41065722
Si             13.60862893     75.12733664      9.06123200      14      0.64666067     -1.14658527      0.62798951      0.79085097      1.95967870     -1.32592222
Si             24.09288740     73.73640437      8.88829098      14      0.47368685     -1.28095973      0.76183251     -0.23880830      0.03077008      0.69717560
Si             26.65685400     75.37112985      8.88034369      14     -0.27887263      1.12071841      0.21463551     -0.97331942     -0.10586870      0.41313740
Si             31.68735147     73.95194712      9.03403529      14      0.04965906      1.18609098     -0.30598128      0.47897872     -0.06324574     -0.53451057
Si             38.19811967     74.31739521      9.02750589      14     -0.87891798     -0.24786947      1.03256874      0.26897529      0.13134510     -1.10641069
Si             43.20932573     72.17454165      9.30399882      14      0.45535265     -0.70824475     -0.27867199      0.56269097     -0.53371336     -1.06343085
Si             14.62869332     72.31753580      9.10458468      14     -0.04354047     -0.40055769     -1.17581009      2.95678986     -0.12978921     -1.14310306
Si              8.88028230     72.93947210      9.05438257      14      0.00000000      0.67985708      0.00000000      5.07083634     -1.44310664     -0.28069669
Si             46.19482856     72.54712452      9.28730922      14     -0.95408617     -0.77143960     -0.42130618      0.82466385      0.87031840      0.16336401
Si             17.73446907     72.11543218      9.02677010      14      0.71346829      0.54055349     -0.91609623     -0.95296031     -0.58194277      3.11507912
Si             36.72126944     71.71744149      9.04631899      14      1.69205212     -0.42262055      1.16771614      0.74059236     -1.82489059      1.90088240
Si             33.65226029     71.52126376      9.16998812      14     -0.15191386     -0.20075720     -0.25929203      0.61560051     -0.71730356      2.21340109
Si             10.08123485     70.08950410      9.04538882      14     -0.69462181     -1.04156631     -0.13091411      0.45440484      0.09953644      1.07753699
Si             13.04437612     69.67911384      9.01745698      14      0.03463256      0.62427898      0.98243441      0.46202210      0.14119028      2.14923585
Si             19.21819944     69.50534572      9.17439904      14     -0.93034314     -0.03828446     -1.12561816     -0.38499754     -1.73435461     -1.20634317
Si             40.10823899     67.61610200      9.28645041      14      0.83662221      0.55596032      0.62396270     -0.86871225     -0.34680669      1.59695314
Si             22.21731635     68.68313586      9.22353041      14      0.15833889     -1.03521971     -0.95193614     -0.57095482      0.01097791     -2.05932580
Si             24.52790946     70.70109614      9.01777445      14     -0.41204043      0.41034259      0.52749891     -2.32329522     -0.21778730     -0.16770498
Si             47.12868389     69.58217348      9.08066540      14     -0.41572557     -1.17636458      0.33819867      1.50134466      3.12022166     -0.14060383
Si             49.62902314     68.26880749      8.98554079      14      2.05760562     -1.49310877      1.25198562      0.70901176     -0.72662529     -0.29964444
Si             32.34092924     68.75769528      9.24659910      14      0.93838036     -1.29840933     -1.84800680      1.69101925      0.42424724     -0.38761846
Si             29.41374869     68.07211232      9.20742801      14      1.48683860      0.81437581      0.76974096     -1.02597397      0.14815429     -1.18817593
Si             42.57328990     69.15221345      9.22115166      14     -1.26513946     -0.17447755      0.11627384      2.22898650      0.30505241      0.48909873
Si              8.11975922     67.78935028      9.07648837      14     -0.00000000     -0.28963435     -0.00000000      4.49518655      1.14542625     -1.22625507
Si             37.29261217     68.78935861      9.22318302      14      1.37575025     -0.04452021     -0.12696777      1.72573215      0.14994973      0.69364805
Si             14.47198717     66.94815825      9.12273890      14     -0.31653108      1.60138058      0.51961001     -1.19121713      0.71843374      0.99654207
Si             17.55836686     66.75586733      9.24554001      14     -0.63338938      0.26046600     -0.09099769      1.12233193      0.10503601      0.96894194
Si             34.77445734     67.09812768      9.20933733      14     -1.42326768     -1.00737110     -0.06011152      0.29236952      0.15702152      0.78658794
Si             45.18058710     67.42738797      9.08700413      14      0.34724917     -0.77628424      2.40733462     -1.74281170     -1.66571163      1.25430008
Si             49.46202999     65.44942711      8.86514015      14      1.88136279     -0.98186778     -0.09880591      1.18948065     -1.79431807      0.07408651
Si             22.17677576     65.56023916      9.31906750      14     -0.86061389      0.23704868     -1.23978297      1.91285549      2.08716676     -0.08153738
Si              9.58232563     65.11530028      9.08370439      14     -0.00000000     -0.53138566     -0.00000000     -0.62893092     -0.26604732      0.19979762
Si             12.53442109     64.57453419      9.05536015      14      0.99638338     -0.63920060     -0.85902356     -0.41335906     -0.68966896      0.72220316
Si             19.47356841     64.30966146      9.38684701      14      0.17029907      0.28172285     -1.57049322     -3.67091524      0.31365680      0.59988248
Si             29.44945126     65.09487877      9.24077214      14     -0.56580862     -0.24413474     -0.86659592     -0.58933109     -0.95266733      0.24827193
Si             47.79077821     63.08794960      8.86631234      14      0.20124223      0.45545550      1.15186286     -1.11399685     -1.02591166      0.26439464
Si             24.14204625     63.29116866      9.37950605      14      0.37400476      0.34859481     -0.20432599      2.46283396      2.52813954      1.02990636
Si             31.95835882     63.46988763      9.23490025      14      1.02671706     -0.93995362     -1.37574431      0.60215996     -0.58806521     -1.46023540
Si             34.96895111     64.12746126      9.20685009      14     -0.05330477      0.69012145     -0.74267858     -1.63160571      0.64878720      1.59246921
Si             45.12616275     64.35637177      9.09212199      14     -0.18844374      1.02024724      1.26441234     -1.12962981      0.86692055      0.04446469
Si             27.15707040     62.90493346      9.34076156      14     -1.42053933     -0.00133997     -0.48793238      2.21467137      1.41385194     -0.12329185
Si             40.01158411     64.62757571      9.35803783      14     -0.71405116     -1.43867337     -1.66201298      0.29686631     -2.14733626      0.59248765
Si             42.54560661     62.82178792      9.18785664      14     -0.58412081     -0.56301567      0.25501428     -0.76902023     -0.20848305      0.78310133
Si              7.76793503     62.56140418      9.09528398      14     -0.00000000     -0.70019275     -0.00000000      5.27013564      0.88932024     -0.85672053
Si             37.64610781     62.69220527      9.41229915      14      0.85137675     -0.60891316      0.07172200      0.06004579      1.70303764      0.34484631
Si              9.76559125     60.43143613      9.09802870      14     -0.00000000     -0.14602057     -0.00000000      3.69669696      0.95303515      0.28583546
Si             28.39749203     60.07273085      9.33530984      14      0.84772151      1.15134418      0.21558691      0.22470970      1.19485039     -1.06222150
Si             31.44127713     60.43097777      9.28416042      14     -0.31673554      0.13198093      1.18425041      0.58625979      0.26873916      0.50382241
Si             19.41842523     61.27710906      9.45584778      14      0.62495281     -1.62759414      0.21993504      0.45327437      0.85843335      0.26797681
Si             22.51081014     60.83224179      9.43286277      14     -1.22755333     -0.13703127     -0.38348730     -1.50849272     -0.21677636     -0.82980559
Si             49.16567179     60.36840677      8.86243241      14     -1.12929825     -0.81487793     -0.84726985      1.25802051      0.30489627     -0.63621242
Si             14.34983697     59.13414051      9.14980845      14     -0.17022739     -0.43163072      1.50925893     -1.15004633     -0.80715472      1.12526970
Si             17.36998065     59.01778964      9.36094068      14     -2.03433219     -0.06874612      0.19716296      0.52136888      0.87326056      0.28486081
Si             33.71855864     58.31211252      9.37990757      14      0.09303015      0.03330107     -0.82242556     -0.32000979      1.37692839     -1.02636124
Si             47.23705116     58.03493706      8.93917445      14      0.07529718     -0.27913140     -1.23074070      0.28874931     -0.80804262      0.76305930
Si             36.68572271     58.02437905      9.25784530      14     -0.33094270      0.76185468      1.33321715     -0.49319818     -0.06048758     -1.42875186
Si             38.96670032     59.94314308      9.18346282      14     -0.02945387      0.62140851      1.80752181      0.03475559     -0.04280494      0.44995138
Si             41.98945869     59.87628672      9.12543546      14     -0.76364282     -0.43459542      0.54084229     -0.32834583      0.76151060      0.21968801
Si             44.15031045     57.67643629      8.96409746      14      0.65174972      0.20426091     -0.95238605      0.22998171      1.06574383      1.13648659
Si             23.79839878     58.04790316      9.32243940      14     -0.13989680     -1.53212236      0.30566077     -1.04793382      0.26345431     -0.48389083
Si              9.93401730     57.44392827      9.11023538      14      0.00000000      0.41614790      0.00000000      2.69039740     -0.84678676      0.03669337
Si             26.80589760     57.45940533      9.25738370      14      0.53125217      0.71525925      0.60891320      0.56417024     -1.08079502     -0.83660073
Si             12.82464274     56.48870890      9.06301572      14     -0.61577769     -0.33121214      0.62254087     -1.37271026      1.25123255      0.44655053
Si              7.25970693     55.95758409      9.11920765      14      0.00000000      0.54750875      0.00000000      5.35683090      1.14438145     -1.48541027
Si             18.63450112     56.18750570      9.28556252      14      0.85984536     -0.48393888     -0.11088123     -0.04645938     -0.57234661     -1.46440118
Si             21.69517800     55.77835747      9.33846467      14      1.99687400     -0.23543410      0.19478916     -0.67165785      0.36496565     -0.56029442
Si             48.61553151     55.20177811      9.09104417      14     -0.44018026     -0.95685548     -0.69034036     -0.08810278      0.32288281      0.61416030
Si             33.30592543     55.29099799      9.27035676      14      0.59794019      0.63720194     -0.27228895     -0.02476437     -0.63101294     -0.83129114
Si             36.18861177     54.96243941      9.19121325      14      0.12582317      0.94564479      1.27354636     -0.06257608     -0.07165512      0.29806395
Si             38.16300429     52.66265864      9.10688041      14      0.97979743      0.37199480     -0.26014071      1.58021793      1.31316145      1.48813334
Si             43.73543683     54.66170702      9.02771852      14      0.52854210     -0.67587475     -1.00225764      0.56652222      0.57055552      0.92526353
Si             41.22357132     53.22602857      9.09990891      14      1.39977621      1.09410775     -0.65976864      1.25023332      0.26085311     -0.89026013
Si             13.99806863     53.67353380      9.37862182      14     -0.13603407      0.33787162      0.75275270      0.46327456     -0.29573103     -1.46217790
Si             17.00435196     53.56938863      9.36346321      14     -0.32909295      0.26894141      0.36798657      1.14124783     -0.03070800     -0.84118418
Si             27.96973597     54.55351193      9.24568138      14      0.12398770      0.75648438     -0.10117091     -0.69881514      1.37115879     -1.02258901
Si             30.84611768     53.52445401      9.17884302      14     -2.25913381      0.43328719     -0.06110876      0.67854028     -0.58387433     -0.17100573
Si             22.87676078     52.98580485      9.30054949      14      0.26820704     -0.30229459      0.34359798     -0.54830602     -1.30742484     -0.02952837
Si             25.89455389     52.44628404      9.16749766      14      0.68444620      1.16933909     -0.35929611     -0.02219852     -1.41621073     -0.21286895
Si              7.19179884     52.98220643      9.12641141      14      0.00000000      0.27359204      0.00000000      1.34033527      0.43090489      0.28689850
Si              5.01013020     50.94943359      9.13345735      14     -0.00000000     -0.40443581     -0.00000000      2.90149200     -0.10851320     -1.14905294
Si             46.37447445     53.09959855      9.00550956      14     -0.86498683      1.09284558     -0.31554865     -2.16378834     -0.12399554      0.26977161
Si              9.28320248     50.87022870      9.13366970      14      0.00000000      1.67297850      0.00000000      2.16513020     -0.72491348      0.23780774
Si             47.08787627     50.12115979      8.96263872      14     -1.11931962      1.16051573      0.20520054     -0.20804640      0.60221142      0.15534028
Si             12.34454643     51.04863110      9.19280532      14      1.35164776      0.76511063     -0.13977055     -1.22783912      0.37851546      0.94741376
Si             18.24656069     50.72214422      9.31850446      14      1.47338106     -0.83945452     -0.79028175      2.10482534      0.77212915     -1.14924706
Si             21.28278519     50.29730966      9.22811809      14      0.36454548     -0.51754470     -1.22630677      2.10877072      1.35484700     -0.38902513
Si             31.50009153     50.54990695      9.25403704      14     -1.12143039     -1.01884881     -0.58465969      0.06899422     -2.73489437     -1.62133900
Si             34.24079107     49.12237749      9.32054167      14      2.63657354     -0.06541573     -0.25785746      0.39983905      0.53895704     -0.56304046
Si             26.29066760     49.36530402      9.14125581      14      0.84276062      0.25094935      0.94840339      1.52811503      1.04288367     -1.01596867
Si             37.20359212     49.77180838      9.32529331      14     -0.37124439      0.87359767     -1.10735256      1.21930096     -1.53873331     -0.09597695
Si             29.20391330     48.55581299      9.11978187      14     -1.37052357      0.34618022     -0.71696481     -1.43496516     -1.26767364      0.53978826
Si             39.89958167     48.40181883      9.17024319      14     -1.22424169     -0.49768104     -0.59566407      1.14497684      1.29184719      1.02034685
Si             42.19794131     50.43643849      9.01574547      14     -1.38187415     -1.25280767     -0.00664659     -0.40567317      0.65271969      0.20516774
Si             13.70667041     48.32221121      9.32738444      14     -0.67251053      0.78831786      1.94448571      1.25260902     -0.74634188      0.23607358
Si             16.80175128     48.16450139      9.30743793      14     -0.26621738     -0.77877019      0.64933177     -1.25908910     -0.99621695     -0.74133151
Si             42.71541593     47.74309814      9.22476135      14      0.45690209      1.40849424      1.08066086     -0.94531077     -0.79499629     -1.49778026
Si              7.08764226     48.81337142      9.14061158      14      0.00000000      1.11225573      0.00000000      2.59213718      1.38039140     -0.33443418
Si             23.45200276     48.24127123      9.17068969      14      1.34778770     -2.29152600     -1.44188340      2.77281811     -1.52765996     -0.67922163
Si             45.64282032     47.45222775      9.10492758      14     -0.11508583      0.77972573      0.36998659     -1.23983321      0.36756026     -0.85679302
Si             30.81964970     46.03814136      8.59330609      14      0.07309715     -0.62161185      0.14448829      0.59791406      1.74809114      1.36969307
Si             33.31499987     46.39481132      8.78482490      14      0.19675977     -0.04452812      1.30679788     -1.22976595     -1.13436644     -0.80903959
Si             19.13695736     46.34085114      8.87250502      14      0.06567661     -1.03863927     -1.03455522     -1.68432663      0.93219848      0.40226118
Si             48.38025497     45.89569657      9.19731295      14      0.29243928      1.48958629     -0.20437421     -0.02273864     -0.88137595      0.56708487
Si             21.46322731     46.23585899      8.97445421      14      0.17903387     -0.18106679     -0.81715545      0.05993359     -0.45826608     -0.68160321
Si              6.85907955     45.86110583      9.15329290      14     -0.00000000     -1.27220758     -0.00000000      4.39794134     -0.19795205     -2.13696834
Si              9.59071083     44.44525158      9.15859770      14      0.00000000      0.32859824      0.00000000      0.57173445      1.65172786     -3.70174778
Si             11.94824750     46.07130370      8.82424056      14      0.17868948      1.17963891      0.48338818      0.18930858      0.82807460      3.14663124
Si             40.35691631     38.11533592      8.51746885      14      0.66859935     -0.07670433     -1.51783881      1.36626949      1.14186485     -0.49938205
Si             42.92718482     37.96987586      8.62624218      14      0.35717927      0.52997507     -0.99480580     -1.10015132      2.04100736     -1.05295280
Si             33.01849589     35.83637636      9.15989206      14     -0.37904556     -0.36851966      0.24856623     -2.32058304     -0.09741238     -0.42721274
Si             35.72529507     34.90327254      9.31494612      14     -0.61877168      0.09179953     -1.26040793      1.28692449     -1.62722287      0.59029043
Si             27.63535705     36.59436359      9.44317759      14     -1.01383697      0.42623276      0.64688623     -0.88327608     -2.07352474     -1.03402587
Si             17.65504110     36.55560682      9.12630148      14     -1.17876390     -0.02759433     -0.04235100     -0.73544144     -0.21298073      0.61490231
Si             25.16530341     34.66115109      9.24780589      14      0.07929350     -0.86234326     -0.17555819      1.61216399     -0.84543688      0.13466126
Si             14.84692053     35.52300886      8.58913300      14     -0.11864250     -0.93688407      0.91222092     -1.41996382      0.15567933      0.31882495
Si             38.55202518     35.92019118      9.19148545      14     -0.14964016      1.76528804      0.37435508     -0.96217567     -1.58503226     -0.72235644
Si             19.75288212     34.25099841      9.17631101      14      0.65755176      0.21697710      1.42591597      0.24536615     -0.67159986     -0.97639700
Si             22.34569347     35.74611347      8.88200042      14      0.08764049     -1.13081248      1.84475931      0.05916242     -1.61086661      1.09894811
Si              6.83019861     33.25909000      9.17611392      14      0.00000000      0.38604660      0.00000000      6.00705763     -0.40606059     -0.06328052
Si             30.18068011     34.81923916      9.31481010      14     -0.90546525      0.78264206      0.28185419      0.17058833      0.26696404      1.42965777
Si             43.61811675     35.27862530      9.11768962      14      1.56507708     -1.65774312      1.31263120      0.93686312      0.25548010     -1.38628216
Si              9.54393444     34.87138602      9.17118781      14      0.00000000      0.61239577      0.00000000      1.13022123      0.40355972      1.62515804
Si             40.84044879     33.98697601      9.13276152      14     -1.44727164      1.42044551     -0.32041563      2.05044177      1.32400759     -1.73444055
Si             12.38374787     33.75378640      8.95707508      14      0.07112058     -0.55991180     -0.70826096     -1.71168110     -0.04371513      1.56004009
Si             45.53435991     33.01231803      8.98615694      14     -0.16049372     -0.29539087     -0.51051969      0.51761834     -0.47497637      1.08896744
Si             48.48959350     33.49448834      8.76719524      14      0.82779359      0.15826231     -0.50575418      1.73958615      0.03689031     -0.12751512
Si             25.31670406     31.59831272      9.17751189      14      1.18068846     -1.03357917     -0.41770595     -0.51345046     -0.96545627     -0.20091269
Si             27.90486918     29.92722550      9.21654954      14     -0.26195730      0.17996707     -2.23330080      1.39003659      0.57617283      1.17702463
Si             30.43369023     31.81270576      9.29376886      14      0.03628426      0.22679075      0.11056911     -1.17754011     -0.66493900      1.17437184
Si              7.37807494     30.28508173      9.18847220      14      0.00000000      0.84593891      0.00000000      1.35369913      1.72368146      0.17176199
Si             22.61614286     30.05773817      9.15941599      14     -0.35954559     -0.28165904      0.22491504      1.63163771      0.96329950     -0.51413673
Si             12.86864619     30.81823457      9.21596059      14     -0.80606348      0.46806130      0.32898106     -0.98916437     -3.32777619     -0.92063713
Si             14.92906477     28.59280242      9.21557220      14      0.36704777      1.01889624     -0.62118089      1.04502118     -2.72284050     -0.44746646
Si             19.78837977     31.20013972      9.25367621      14      1.55560260      1.02184277      0.13697947      0.52999775      1.06295589     -1.79954144
Si             33.13137224     30.41564564      9.37737232      14     -0.69772559      0.78482230     -0.72301155     -1.74424126      0.89848654     -0.99251868
Si             35.90175152     31.70760250      9.37393013      14     -1.50550898     -0.02710441     -1.01401336     -0.68137216      1.72471230     -1.52748914
Si             38.34988816     29.95740974      9.20813344      14      0.04200056      0.22033391     -0.03169969      0.85631766     -0.78127555     -0.73124908
Si             17.98442706     28.78947964      9.11687343      14      1.26625567      0.14157855     -1.38286733     -0.16011343     -0.18521468     -0.42358712
Si             44.08015274     30.29122956      9.06881502      14     -0.15541958      0.44795793      0.37991590      0.76776955     -0.52739685      0.78935508
Si             41.08959140     31.01560693      9.17428724      14     -0.29570538     -0.45930757     -0.75560811      4.26832644      0.87237888      0.04827866
Si             10.19964594     29.40127649      9.19070683      14      0.59110414     -1.47376946     -1.05918822      1.25944176     -0.53492125      2.11749476
Si             48.26516442     26.73650473      9.23991103      14      0.49577194      0.47638435      1.88908745     -0.55873321      0.26993181      0.36653163
Si             30.41064968     25.36039163      9.27939781      14      0.63343963     -0.60187636      1.06670030      0.43374118      0.84449913     -0.15413821
Si             32.68367510     27.39158557      9.28839943      14     -0.78629022      0.54019095      0.14048177     -0.44768201      0.51304172      1.84731054
Si              5.94348507     27.68213282      9.19810100      14     -0.00000000     -0.99195770     -0.00000000      3.34531854      0.87926338     -1.68425810
Si              7.84001085     25.30897864      9.20895077      14      0.00000000      0.53496822      0.00000000      2.70931028      0.22556440      0.72328301
Si             25.14350853     25.32243035      9.23439820      14     -2.40649068      0.25208450      1.06284587      0.41857190     -0.26879170      0.13093748
Si             27.81564287     26.81431621      9.25874250      14      2.14546107      0.17254375     -1.69793908     -1.14935727      1.89637141      0.16816104
Si             45.30634546     27.48746220      9.17914325      14     -0.12207008     -0.39586797     -0.02228393     -0.00924939     -0.56482704     -0.40487922
Si             10.73611309     26.33255747      9.15079263      14      0.33811546      0.26285057     -0.64092337     -2.27602413      0.54643955      1.69888020
Si             35.11927613     25.61263010      9.32935989      14     -0.34656104      0.13691524     -0.32221104      0.88925290     -0.06268745     -0.78047920
Si             43.26226461     25.12142499      9.28466826      14      0.63874353     -0.34798539     -0.58802237     -1.22342805      3.39509870      0.82477574
Si             22.57755456     27.01139566      9.21748224      14     -0.19962535     -0.75041336      0.48907410      1.99492705     -0.51927001     -0.34985804
Si             37.86032620     27.00263446      9.15190459      14     -0.08801446      0.45087355     -0.79470676     -0.29396887      0.67539859      1.19699356
Si             40.18054259     25.19321950      9.35247793      14     -0.70097641      0.60898889      0.75959756      2.16827506      1.20939724     -1.45650590
Si             13.62351470     25.78514135      9.09439075      14      0.12291578     -0.29517703      0.27876175      0.19511941     -1.42140769      2.56414942
Si             19.66294635     26.29127758      9.16327897      14     -0.65010466      0.69296896      0.38806792      1.01275124     -1.97720980     -0.92481988
Si             18.37052593     23.58187174      9.09421962      14      0.80583891      0.39568466     -2.02848917     -0.82843665     -0.76310355     -0.32957819
Si             15.31981349     23.19633320      9.08742891      14     -0.25653511     -0.29579437      0.02797443     -0.05220973      1.37408133      0.72766235
Si              6.40216372     22.59969962      9.21946884      14     -0.00000000     -0.52192194     -0.00000000      4.28584921      0.37023215     -1.21267789
Si             19.96541176     20.91556756      9.05846975      14     -0.66020745     -1.32636943     -0.56113438      1.14959311      0.45206696      0.18350912
Si             22.86427973     20.32048454      9.10244383      14      0.00938449     -0.50084387     -0.34188493      2.31038759      0.17894629     -1.79774151
Si             48.51372849     23.76461440      9.14391067      14      0.37565709     -0.04656861      1.63093459      1.08839314     -0.25271299      0.29761615
Si             25.41483391     22.20012564      9.10383525      14      0.31035999      0.14637453     -0.53716559     -0.80282293      1.38087630     -0.26956485
Si             28.07195770     20.89067898      9.09468605      14     -1.35898562      0.19914086      1.30457768      0.72853901     -0.82849439     -0.31033437
Si             46.64490205     21.37673496      9.22385973      14     -0.66213577     -0.22036325      0.81238461      3.03580105      0.38948709      1.51641490
Si             30.73088049     22.34908974      9.25671645      14      0.00914048      0.28119229     -0.58887506     -0.40158723     -0.25974907     -0.42509566
Si             33.31788287     20.71756278      9.18377865      14     -0.47259470      0.19244473      0.33485287      0.06253394      0.89334157      0.49629750
Si             35.55140052     22.65728753      9.20886536      14      1.07694963     -0.38783547      1.16539831      1.14534505      0.86430790     -0.02832331